[Molden Format]
[GTO]
    1 0
 s   6 1.00
      71.6168370    0.1543289700
      13.0450960    0.5353281400
       3.5305122    0.4446345400
       2.9412494    0.0000000000
       0.6834831    0.0000000000
       0.2222899    0.0000000000
 s   6 1.00
      71.6168370    0.0000000000
      13.0450960    0.0000000000
       3.5305122    0.0000000000
       2.9412494   -0.0999672300
       0.6834831    0.3995128300
       0.2222899    0.7001154700
 p   3 1.00
       2.9412494    0.1559162700
       0.6834831    0.6076837200
       0.2222899    0.3919573900

    2 0
 s   6 1.00
      71.6168370    0.1543289700
      13.0450960    0.5353281400
       3.5305122    0.4446345400
       2.9412494    0.0000000000
       0.6834831    0.0000000000
       0.2222899    0.0000000000
 s   6 1.00
      71.6168370    0.0000000000
      13.0450960    0.0000000000
       3.5305122    0.0000000000
       2.9412494   -0.0999672300
       0.6834831    0.3995128300
       0.2222899    0.7001154700
 p   3 1.00
       2.9412494    0.1559162700
       0.6834831    0.6076837200
       0.2222899    0.3919573900

    3 0
 s   6 1.00
      71.6168370    0.1543289700
      13.0450960    0.5353281400
       3.5305122    0.4446345400
       2.9412494    0.0000000000
       0.6834831    0.0000000000
       0.2222899    0.0000000000
 s   6 1.00
      71.6168370    0.0000000000
      13.0450960    0.0000000000
       3.5305122    0.0000000000
       2.9412494   -0.0999672300
       0.6834831    0.3995128300
       0.2222899    0.7001154700
 p   3 1.00
       2.9412494    0.1559162700
       0.6834831    0.6076837200
       0.2222899    0.3919573900

    4 0
 s   6 1.00
      71.6168370    0.1543289700
      13.0450960    0.5353281400
       3.5305122    0.4446345400
       2.9412494    0.0000000000
       0.6834831    0.0000000000
       0.2222899    0.0000000000
 s   6 1.00
      71.6168370    0.0000000000
      13.0450960    0.0000000000
       3.5305122    0.0000000000
       2.9412494   -0.0999672300
       0.6834831    0.3995128300
       0.2222899    0.7001154700
 p   3 1.00
       2.9412494    0.1559162700
       0.6834831    0.6076837200
       0.2222899    0.3919573900

    5 0
 s   6 1.00
      71.6168370    0.1543289700
      13.0450960    0.5353281400
       3.5305122    0.4446345400
       2.9412494    0.0000000000
       0.6834831    0.0000000000
       0.2222899    0.0000000000
 s   6 1.00
      71.6168370    0.0000000000
      13.0450960    0.0000000000
       3.5305122    0.0000000000
       2.9412494   -0.0999672300
       0.6834831    0.3995128300
       0.2222899    0.7001154700
 p   3 1.00
       2.9412494    0.1559162700
       0.6834831    0.6076837200
       0.2222899    0.3919573900

    6 0
 s   3 1.00
       3.4252509    0.1543289700
       0.6239137    0.5353281400
       0.1688554    0.4446345400

    7 0
 s   3 1.00
       3.4252509    0.1543289700
       0.6239137    0.5353281400
       0.1688554    0.4446345400

    8 0
 s   3 1.00
       3.4252509    0.1543289700
       0.6239137    0.5353281400
       0.1688554    0.4446345400

    9 0
 s   3 1.00
       3.4252509    0.1543289700
       0.6239137    0.5353281400
       0.1688554    0.4446345400

   10 0
 s   3 1.00
       3.4252509    0.1543289700
       0.6239137    0.5353281400
       0.1688554    0.4446345400

   11 0
 s   3 1.00
       3.4252509    0.1543289700
       0.6239137    0.5353281400
       0.1688554    0.4446345400

   12 0
 s   3 1.00
       3.4252509    0.1543289700
       0.6239137    0.5353281400
       0.1688554    0.4446345400

   13 0
 s   3 1.00
       3.4252509    0.1543289700
       0.6239137    0.5353281400
       0.1688554    0.4446345400

[Atoms] AU
C          1     6         0.0000000000         0.0000000000         0.000000000
C          2     6         0.0000000000         0.0000000000         2.470719177
C          3     6         0.0034251683        -0.0020616213        -2.470825508
C          4     6         2.4338908587         0.0000000000         3.905868504
C          5     6         1.1210135317        -2.1663189658        -3.902694524
H          6     1         0.9445598181        -1.8167241302        -5.963501593
H          7     1         0.1085754598        -3.9419181031        -3.425579469
H          8     1         3.1532068444        -2.3734500038        -3.419852862
H          9     1         3.5498203072        -1.7117997251         3.426314070
H         10     1         3.5487002495         1.7130638272         3.428503911
H         11     1         2.0393995716        -0.0012369543         5.966175631
H         12     1        -1.7853444134        -0.0017011579         3.479388321
H         13     1        -0.8116012448         1.5848686714        -3.481958070
[MO]
Sym= A
Ene=  -11.0463
Spin= Alpha
Occup=  2.0000
    1       -0.000863
    2        0.000076
    3        0.000035
    4       -0.000002
    5        0.000076
    6       -0.003609
    7       -0.006249
    8       -0.003831
    9        0.000021
   10       -0.002222
   11        0.000190
   12        0.000199
   13        0.000050
   14       -0.000095
   15       -0.000030
   16        0.991616
   17        0.037449
   18       -0.000373
   19       -0.000010
   20       -0.000184
   21       -0.026603
   22       -0.001012
   23        0.000001
   24       -0.000009
   25       -0.000002
   26        0.000183
   27        0.000183
   28        0.000195
   29       -0.006736
   30       -0.006725
   31       -0.006737
   32        0.000133
   33       -0.000003
Sym= A
Ene=  -11.0463
Spin= Alpha
Occup=  2.0000
    1        0.000910
    2       -0.000080
    3       -0.000020
    4        0.000031
    5        0.000072
    6        0.000004
    7        0.000136
    8        0.000098
   10        0.000089
   11        0.003602
   12        0.006247
   13        0.001778
   14       -0.003396
   15       -0.002218
   16       -0.026603
   17       -0.000997
   18        0.000012
   19       -0.000002
   20        0.000008
   21       -0.991616
   22       -0.037448
   23        0.000163
   24       -0.000336
   25       -0.000183
   26        0.006737
   27        0.006724
   28        0.006734
   29        0.000166
   30        0.000178
   31        0.000178
   32       -0.000004
   33       -0.000133
Sym= A
Ene=  -11.0182
Spin= Alpha
Occup=  2.0000
    1       -0.050692
    2        0.010140
    3        0.000017
    4       -0.000010
    5        0.000264
    6       -0.727288
    7       -0.026623
    8       -0.000080
    9        0.000005
   10        0.001495
   11       -0.672896
   12       -0.024623
   13       -0.000036
   14        0.000062
   15       -0.001377
   16       -0.003322
   17        0.004116
   18       -0.002682
   19       -0.000007
   20       -0.001642
   21       -0.003065
   22        0.003810
   23       -0.001134
   24        0.002211
   25        0.001514
   26        0.000006
   27        0.000116
   28        0.000109
   29        0.000118
   30        0.000125
   31        0.000008
   32        0.005034
   33        0.004659
Sym= A
Ene=  -11.0180
Spin= Alpha
Occup=  2.0000
    1       -0.001971
    2        0.000392
    3        0.000002
    4       -0.000008
    5       -0.006806
    6        0.673911
    7        0.024790
    8        0.000082
    9       -0.000011
   10       -0.001463
   11       -0.728227
   12       -0.026777
   13       -0.000049
   14        0.000072
   15       -0.001573
   16        0.003168
   17       -0.003805
   18        0.002460
   19        0.000007
   20        0.001549
   21       -0.003414
   22        0.004112
   23       -0.001215
   24        0.002370
   25        0.001668
   26        0.000019
   27        0.000120
   28        0.000118
   29       -0.000109
   30       -0.000110
   31       -0.000019
   32       -0.004646
   33        0.005022
Sym= A
Ene=  -11.0038
Spin= Alpha
Occup=  2.0000
    1       -0.991348
    2       -0.034051
    3       -0.000047
    4        0.000028
    5       -0.000001
    6        0.035422
    7        0.008393
    8        0.000015
    9       -0.000006
   10       -0.003958
   11        0.035429
   12        0.008392
   13        0.000007
   14       -0.000007
   15        0.003958
   16       -0.000798
   17       -0.000452
   18        0.000231
   19        0.000004
   20       -0.000286
   21       -0.000798
   22       -0.000452
   23        0.000102
   24       -0.000207
   25        0.000287
   26        0.000169
   27        0.000167
   28        0.000176
   29        0.000176
   30        0.000167
   31        0.000169
   32       -0.000154
   33       -0.000154
Sym= A
Ene=   -1.0338
Spin= Alpha
Occup=  2.0000
    1       -0.151419
    2        0.373305
    3        0.006138
    4       -0.003738
    5        0.000046
    6       -0.128276
    7        0.339031
    8        0.027409
    9       -0.000539
   10       -0.069162
   11       -0.128238
   12        0.338941
   13        0.012950
   14       -0.024045
   15        0.069184
   16       -0.080284
   17        0.218279
   18       -0.041463
   19       -0.000238
   20       -0.030623
   21       -0.080259
   22        0.218210
   23       -0.018832
   24        0.036974
   25        0.030557
   26        0.043334
   27        0.047489
   28        0.047831
   29        0.047849
   30        0.047507
   31        0.043347
   32        0.071095
   33        0.071072
Sym= A
Ene=   -0.9760
Spin= Alpha
Occup=  2.0000
    1       -0.000012
    2        0.000034
    3       -0.003566
    4       -0.006132
    5       -0.178771
    6        0.116397
    7       -0.294749
    8       -0.049440
    9       -0.002521
   10       -0.016522
   11       -0.116430
   12        0.294840
   13        0.020456
   14       -0.045118
   15       -0.016457
   16        0.123564
   17       -0.344593
   18        0.043012
   19        0.000051
   20        0.025768
   21       -0.123594
   22        0.344677
   23       -0.019714
   24        0.038284
   25        0.025715
   26        0.081695
   27        0.081645
   28        0.082262
   29       -0.082248
   30       -0.081629
   31       -0.081672
   32       -0.076424
   33        0.076443
Sym= A
Ene=   -0.8735
Spin= Alpha
Occup=  2.0000
    1        0.127707
    2       -0.337525
    3        0.019154
    4       -0.011670
    5       -0.000012
    6        0.036846
    7       -0.108693
    8        0.084513
    9       -0.002710
   10        0.151135
   11        0.036828
   12       -0.108651
   13        0.041343
   14       -0.073976
   15       -0.150987
   16       -0.131759
   17        0.384552
   18        0.023685
   19       -0.001374
   20        0.027577
   21       -0.131729
   22        0.384464
   23        0.012106
   24       -0.020433
   25       -0.027543
   26        0.125346
   27        0.114200
   28        0.116340
   29        0.116378
   30        0.114230
   31        0.125367
   32       -0.032787
   33       -0.032769
Sym= A
Ene=   -0.7993
Spin= Alpha
Occup=  2.0000
    1        0.000016
    2       -0.000049
    3       -0.010528
    4       -0.016799
    5        0.302695
    6       -0.112131
    7        0.306082
    8       -0.091728
    9       -0.007202
   10       -0.085686
   11        0.112145
   12       -0.306133
   13        0.035754
   14       -0.084911
   15       -0.085602
   16        0.094752
   17       -0.286554
   18       -0.087341
   19       -0.000580
   20       -0.056339
   21       -0.094774
   22        0.286623
   23        0.039597
   24       -0.077949
   25       -0.056245
   26        0.114994
   27        0.111309
   28        0.110386
   29       -0.110371
   30       -0.111288
   31       -0.114955
   32        0.134742
   33       -0.134752
Sym= A
Ene=   -0.6450
Spin= Alpha
Occup=  2.0000
    1        0.098257
    2       -0.293643
    3       -0.071720
    4        0.043708
    5       -0.000099
    6       -0.063272
    7        0.208848
    8       -0.155919
    9        0.020768
   10        0.257768
   11       -0.063271
   12        0.208837
   13       -0.089512
   14        0.128823
   15       -0.257930
   16        0.016239
   17       -0.053448
   18       -0.160153
   19        0.009721
   20        0.070265
   21        0.016241
   22       -0.053458
   23       -0.081925
   24        0.137821
   25       -0.070449
   26        0.053760
   27       -0.090202
   28       -0.101719
   29       -0.101723
   30       -0.090218
   31        0.053803
   32        0.277753
   33        0.277692
Sym= A
Ene=   -0.5915
Spin= Alpha
Occup=  2.0000
    1       -0.000010
    2        0.000039
    3       -0.046533
    4       -0.076780
    5       -0.274779
    6       -0.003366
    7        0.037767
    8       -0.176224
    9       -0.044793
   10        0.258956
   11        0.003377
   12       -0.037796
   13        0.040582
   14       -0.176978
   15        0.259209
   16        0.001095
   17       -0.004374
   18       -0.121502
   19       -0.033697
   20        0.202994
   21       -0.001100
   22        0.004392
   23        0.025461
   24       -0.123323
   25        0.203157
   26       -0.179277
   27        0.111745
   28        0.068145
   29       -0.068094
   30       -0.111724
   31        0.179253
   32        0.232889
   33       -0.232944
Sym= A
Ene=   -0.5399
Spin= Alpha
Occup=  2.0000
    1        0.038699
    2       -0.122807
    3        0.149940
    4       -0.092040
    5        0.000400
    6       -0.026923
    7        0.096172
    8        0.177109
    9       -0.126836
   10        0.097076
   11       -0.026956
   12        0.096339
   13        0.193114
   14       -0.100193
   15       -0.097243
   16        0.005102
   17       -0.019031
   18       -0.147488
   19       -0.287576
   20       -0.177079
   21        0.005113
   22       -0.019072
   23        0.184857
   24        0.262239
   25        0.177143
   26       -0.135728
   27       -0.242901
   28        0.162489
   29        0.164881
   30       -0.244655
   31       -0.135838
   32       -0.036655
   33       -0.036593
Sym= A
Ene=   -0.5381
Spin= Alpha
Occup=  2.0000
    1       -0.000164
    2        0.000519
    3       -0.075474
    4       -0.122326
    5        0.064551
    6        0.005275
    7       -0.025655
    8       -0.046576
    9       -0.152226
   10       -0.068436
   11       -0.005052
   12        0.024853
   13       -0.115434
   14       -0.110292
   15       -0.067691
   16       -0.001857
   17        0.007002
   18        0.087610
   19       -0.365791
   20       -0.000424
   21        0.001817
   22       -0.006857
   23       -0.366558
   24       -0.091870
   25       -0.002424
   26        0.013328
   27        0.218664
   28       -0.304669
   29        0.303516
   30       -0.216813
   31       -0.012187
   32       -0.004603
   33        0.004941
Sym= A
Ene=   -0.5234
Spin= Alpha
Occup=  2.0000
    1        0.044049
    2       -0.141759
    3        0.076972
    4       -0.046965
    5        0.000138
    6       -0.028135
    7        0.102465
    8        0.205586
    9        0.044804
   10        0.103911
   11       -0.028141
   12        0.102494
   13        0.054493
   14       -0.203454
   15       -0.103785
   16        0.000770
   17       -0.003440
   18       -0.145509
   19        0.266668
   20       -0.240095
   21        0.000769
   22       -0.003436
   23       -0.304270
   24        0.007296
   25        0.239716
   26       -0.190343
   27        0.171460
   28       -0.216839
   29       -0.216694
   30        0.171353
   31       -0.190269
   32       -0.058534
   33       -0.058535
Sym= A
Ene=   -0.4972
Spin= Alpha
Occup=  2.0000
    1        0.000015
    2       -0.000058
    3       -0.067348
    4       -0.110143
    5        0.179130
    6        0.016213
    7       -0.079285
    8       -0.300726
    9       -0.034503
   10       -0.184596
   11       -0.016215
   12        0.079284
   13        0.107355
   14       -0.283083
   15       -0.184244
   16        0.005493
   17       -0.018749
   18        0.315830
   19        0.111567
   20        0.156254
   21       -0.005495
   22        0.018754
   23       -0.045594
   24        0.331813
   25        0.156109
   26       -0.081668
   27       -0.201440
   28       -0.028995
   29        0.029241
   30        0.201492
   31        0.081465
   32        0.118133
   33       -0.117982
Sym= A
Ene=   -0.4875
Spin= Alpha
Occup=  2.0000
    1        0.042127
    2       -0.146617
    3       -0.081433
    4        0.049707
    5       -0.000204
    6       -0.006198
    7        0.021953
    8       -0.188552
    9        0.019530
   10        0.052310
   11       -0.006184
   12        0.021873
   13       -0.103742
   14        0.158802
   15       -0.052347
   16        0.002308
   17       -0.007833
   18        0.268761
   19       -0.031206
   20       -0.243475
   21        0.002313
   22       -0.007845
   23        0.150582
   24       -0.224594
   25        0.243600
   26       -0.280273
   27        0.161288
   28        0.212578
   29        0.212571
   30        0.161220
   31       -0.280492
   32        0.194760
   33        0.194774
Sym= A
Ene=   -0.4696
Spin= Alpha
Occup=  2.0000
    1        0.000006
    2       -0.000029
    3        0.015730
    4        0.026335
    5        0.291731
    6        0.001019
    7       -0.032536
    8        0.102348
    9        0.012855
   10       -0.222070
   11       -0.001016
   12        0.032518
   13       -0.035227
   14        0.096792
   15       -0.222203
   16        0.001038
   17       -0.003307
   18       -0.132974
   19       -0.016399
   20        0.298426
   21       -0.001038
   22        0.003310
   23        0.046020
   24       -0.125592
   25        0.298641
   26       -0.311605
   27        0.152479
   28        0.126648
   29       -0.126508
   30       -0.152433
   31        0.311526
   32       -0.213396
   33        0.213498
Sym= A
Ene=   -0.3212
Spin= Alpha
Occup=  2.0000
    1       -0.000005
    2        0.000018
    3        0.297122
    4        0.487686
    5        0.005659
    6        0.001428
    7       -0.008179
    8       -0.099993
    9        0.419253
   10       -0.007177
   11       -0.001417
   12        0.008128
   13        0.418330
   14        0.103131
   15       -0.006647
   16        0.012549
   17       -0.049326
   18        0.093964
   19       -0.118253
   20        0.059604
   21       -0.012555
   22        0.049350
   23       -0.148238
   24        0.029421
   25        0.059378
   26       -0.028807
   27        0.109200
   28       -0.152147
   29        0.152183
   30       -0.109252
   31        0.028792
   32        0.109347
   33       -0.109405
Sym= A
Ene=   -0.2550
Spin= Alpha
Occup=  2.0000
    1        0.001042
    2       -0.003189
    3       -0.478618
    4        0.291594
    5       -0.000445
    6       -0.001620
    7        0.009526
    8        0.080159
    9        0.477768
   10        0.001512
   11       -0.001629
   12        0.009566
   13       -0.388079
   14       -0.290234
   15       -0.001844
   16       -0.018710
   17        0.080114
   18       -0.115829
   19       -0.083436
   20       -0.076185
   21       -0.018703
   22        0.080089
   23        0.021024
   24        0.141226
   25        0.076075
   26       -0.042306
   27       -0.138043
   28        0.101439
   29        0.101375
   30       -0.137984
   31       -0.042336
   32       -0.150611
   33       -0.150573
Sym= A
Ene=    0.2739
Spin= Alpha
Occup=  0.0000
    1       -0.000238
    2        0.003141
    3       -0.636703
    4        0.387982
    5       -0.000613
    6       -0.000475
    7        0.008219
    8       -0.077903
    9       -0.502492
   10       -0.000390
   11       -0.000462
   12        0.008144
   13        0.411038
   14        0.299551
   15        0.000767
   16       -0.029957
   17        0.151830
   18       -0.152657
   19       -0.043083
   20       -0.066264
   21       -0.029956
   22        0.151824
   23       -0.031734
   24        0.155466
   25        0.066099
   26       -0.075718
   27        0.123731
   28       -0.122747
   29       -0.122703
   30        0.123696
   31       -0.075722
   32       -0.221926
   33       -0.221842
Sym= A
Ene=    0.3619
Spin= Alpha
Occup=  0.0000
    1       -0.000004
    2        0.000018
    3       -0.411778
    4       -0.675759
    5        0.002406
    6       -0.000540
    7        0.007939
    8       -0.108134
    9        0.548545
   10        0.002826
   11        0.000564
   12       -0.008068
   13        0.536997
   14        0.155180
   15        0.003498
   16       -0.022423
   17        0.120650
   18       -0.120839
   19        0.095724
   20       -0.036836
   21        0.022418
   22       -0.120632
   23        0.140502
   24       -0.063552
   25       -0.036552
   26        0.067675
   27        0.152015
   28       -0.167015
   29        0.167025
   30       -0.152037
   31       -0.067678
   32       -0.175660
   33        0.175782
Sym= A
Ene=    0.6357
Spin= Alpha
Occup=  0.0000
    1        0.000017
    2       -0.000076
    3        0.057211
    4        0.093679
    5        0.050883
    6       -0.075876
    7        0.460067
    8       -0.147889
    9       -0.038481
   10        0.284015
   11        0.075602
   12       -0.458390
   13        0.033005
   14       -0.148790
   15        0.283430
   16        0.018807
   17       -0.102763
   18       -0.069057
   19       -0.074892
   20        0.592223
   21       -0.018763
   22        0.102525
   23       -0.035770
   24       -0.095561
   25        0.590482
   26        0.545864
   27       -0.296589
   28       -0.171878
   29        0.172358
   30        0.296919
   31       -0.547393
   32       -0.507903
   33        0.506549
Sym= A
Ene=    0.6399
Spin= Alpha
Occup=  0.0000
    1        0.005137
    2       -0.056904
    3       -0.097488
    4        0.059658
    5       -0.000014
    6        0.080984
    7       -0.495866
    8        0.095708
    9       -0.024390
   10       -0.292131
   11        0.081184
   12       -0.497080
   13        0.065160
   14       -0.074194
   15        0.293046
   16       -0.026086
   17        0.145643
   18        0.019663
   19       -0.054291
   20       -0.615447
   21       -0.026178
   22        0.146158
   23        0.056310
   24        0.007417
   25        0.617080
   26        0.538764
   27       -0.187003
   28       -0.277582
   29       -0.276931
   30       -0.185999
   31        0.537394
   32        0.480715
   33        0.482144
Sym= A
Ene=    0.6703
Spin= Alpha
Occup=  0.0000
    1        0.138651
    2       -0.940188
    3       -0.050785
    4        0.030931
    5        0.000009
    6       -0.139216
    7        0.866932
    8        0.076920
    9       -0.003772
   10       -0.190996
   11       -0.139268
   12        0.867251
   13        0.038290
   14       -0.066376
   15        0.191004
   16       -0.012383
   17        0.089129
   18        0.578451
   19       -0.069942
   20       -0.033220
   21       -0.012389
   22        0.089157
   23        0.327601
   24       -0.481917
   25        0.033840
   26        0.129768
   27       -0.279320
   28       -0.386905
   29       -0.386597
   30       -0.279663
   31        0.130005
   32       -0.286513
   33       -0.286809
Sym= A
Ene=    0.7033
Spin= Alpha
Occup=  0.0000
    1       -0.000039
    2        0.000268
    3       -0.006481
    4       -0.010796
    5       -0.078009
    6       -0.048050
    7        0.306764
    8        0.198218
    9       -0.049637
   10        0.139534
   11        0.048136
   12       -0.307308
   13       -0.135310
   14        0.153188
   15        0.139127
   16       -0.074951
   17        0.477088
   18        0.614653
   19        0.304813
   20        0.152380
   21        0.074891
   22       -0.476710
   23       -0.009767
   24        0.686656
   25        0.151803
   26        0.224727
   27        0.698009
   28        0.237222
   29       -0.238408
   30       -0.697205
   31       -0.224916
   32       -0.044483
   33        0.044916
Sym= A
Ene=    0.7093
Spin= Alpha
Occup=  0.0000
    1       -0.036408
    2        0.251867
    3        0.050818
    4       -0.030746
    5        0.000158
    6        0.024723
    7       -0.158083
    8        0.089383
    9        0.158207
   10        0.092687
   11        0.024643
   12       -0.157534
   13       -0.099954
   14       -0.152261
   15       -0.092904
   16       -0.023725
   17        0.148918
   18        0.047123
   19       -0.745048
   20        0.129809
   21       -0.024110
   22        0.151338
   23        0.686129
   24        0.298785
   25       -0.129184
   26       -0.179631
   27        0.499091
   28       -0.614155
   29       -0.611268
   30        0.499654
   31       -0.178699
   32        0.113794
   33        0.113513
Sym= A
Ene=    0.7171
Spin= Alpha
Occup=  0.0000
    1       -0.067722
    2        0.457237
    3       -0.007367
    4        0.004081
    5       -0.000083
    6        0.065973
    7       -0.412104
    8        0.034628
    9       -0.040305
   10        0.088312
   11        0.065916
   12       -0.411780
   13        0.052854
   14       -0.012266
   15       -0.088526
   16       -0.148298
   17        0.924907
   18        0.192824
   19        0.195231
   20        0.186694
   21       -0.147855
   22        0.922134
   23       -0.088667
   24       -0.262075
   25       -0.186887
   26       -0.530776
   27       -0.588235
   28       -0.289285
   29       -0.293784
   30       -0.586977
   31       -0.531542
   32        0.208071
   33        0.208017
Sym= A
Ene=    0.7183
Spin= Alpha
Occup=  0.0000
    1        0.000164
    2       -0.001104
    3       -0.062342
    4       -0.102433
    5       -0.013065
    6        0.007882
    7       -0.042499
    8       -0.085210
    9        0.176160
   10       -0.036000
   11       -0.008233
   12        0.044682
   13        0.195155
   14        0.004447
   15       -0.035423
   16       -0.080330
   17        0.501911
   18        0.140334
   19       -0.680031
   20       -0.028327
   21        0.081091
   22       -0.506641
   23       -0.665821
   24       -0.184776
   25       -0.028456
   26        0.161477
   27       -0.215279
   28        0.790105
   29       -0.790662
   30        0.220020
   31       -0.158853
   32       -0.020820
   33        0.019962
Sym= A
Ene=    0.7512
Spin= Alpha
Occup=  0.0000
    1        0.000016
    2       -0.000126
    3        0.074558
    4        0.122555
    5        0.187062
    6        0.102835
    7       -0.661164
    8       -0.143006
    9       -0.087233
   10       -0.301377
   11       -0.102816
   12        0.661046
   13       -0.011571
   14       -0.167164
   15       -0.300984
   16       -0.123057
   17        0.763825
   18       -0.422204
   19        0.164780
   20        0.217578
   21        0.123029
   22       -0.763663
   23        0.339441
   24       -0.299361
   25        0.218304
   26        0.577659
   27        0.192412
   28       -0.041354
   29        0.041432
   30       -0.192399
   31       -0.577768
   32        0.352890
   33       -0.352798
Sym= A
Ene=    0.8339
Spin= Alpha
Occup=  0.0000
    1        0.000424
    2       -0.003299
    3       -0.165034
    4       -0.271895
    5        0.096885
    6        0.018356
    7       -0.148303
    8        0.773799
    9        0.142392
   10       -0.029931
   11       -0.018437
   12        0.148956
   13       -0.229228
   14        0.754612
   15       -0.025994
   16        0.060741
   17       -0.392908
   18        0.122016
   19       -0.126728
   20        0.416919
   21       -0.061149
   22        0.395490
   23       -0.170264
   24        0.053382
   25        0.415998
   26        0.170085
   27       -0.252060
   28       -0.088342
   29        0.088506
   30        0.252610
   31       -0.171879
   32        0.614972
   33       -0.614550
Sym= A
Ene=    0.8345
Spin= Alpha
Occup=  0.0000
    1        0.136341
    2       -1.060441
    3        0.185512
    4       -0.111927
    5       -0.000113
    6       -0.013650
    7        0.111788
    8       -0.315147
    9        0.059133
   10       -0.781080
   11       -0.013498
   12        0.110605
   13       -0.196680
   14        0.249012
   15        0.780969
   16       -0.067829
   17        0.430454
   18       -0.459824
   19       -0.051842
   20        0.118825
   21       -0.067493
   22        0.428285
   23       -0.163633
   24        0.432158
   25       -0.122046
   26       -0.310983
   27        0.086811
   28        0.018219
   29        0.017568
   30        0.085346
   31       -0.309726
   32        0.069028
   33        0.072999
Sym= A
Ene=    0.8872
Spin= Alpha
Occup=  0.0000
    1       -0.048421
    2        0.394876
    3        0.342475
    4       -0.208727
    5        0.000292
    6        0.009100
    7       -0.048372
    8       -0.784989
    9        0.099369
   10        0.281340
   11        0.009115
   12       -0.048486
   13       -0.447603
   14        0.651890
   15       -0.282491
   16       -0.054908
   17        0.363003
   18       -0.096124
   19       -0.066459
   20       -0.401577
   21       -0.054897
   22        0.362920
   23        0.014363
   24        0.116195
   25        0.401564
   26        0.158098
   27       -0.117606
   28       -0.199624
   29       -0.199682
   30       -0.117626
   31        0.158026
   32       -0.609124
   33       -0.609010
Sym= A
Ene=    1.3241
Spin= Alpha
Occup=  0.0000
    1       -0.000018
    2        0.000219
    3       -0.002266
    4       -0.001288
    5        1.567415
    6        0.093102
    7       -0.847087
    8       -0.021640
    9        0.000628
   10        0.864293
   11       -0.093084
   12        0.846865
   13        0.009268
   14       -0.018216
   15        0.864160
   16        0.000375
   17       -0.004477
   18        0.077819
   19        0.000051