Energy water                                                            
SP        RHF                                                         6-31G(d)            
Number of atoms                            I                3
Info1-9                                    I   N=           9
          11          10           0           0           0         110
           1           1           2
Full Title                                 C   N=           1
Energy water
Route                                      C   N=           4
#P HF/6-31G(d) pop=full gfinput 6D 10F          
Charge                                     I                0
Multiplicity                               I                1
Number of electrons                        I               10
Number of alpha electrons                  I                5
Number of beta electrons                   I                5
Number of basis functions                  I               19
Number of independent functions            I               19
Number of point charges in /Mol/           I                0
Number of translation vectors              I                0
Atomic numbers                             I   N=           3
           8           1           1
Nuclear charges                            R   N=           3
  8.00000000E+00  1.00000000E+00  1.00000000E+00
Current cartesian coordinates              R   N=           9
  1.38394898E-17  1.38394898E-17  2.26016022E-01  2.09095447E-16  1.43961729E+00
 -9.04064083E-01 -4.96113637E-16 -1.43961729E+00 -9.04064083E-01
Number of symbols in /Mol/                 I                0
Force Field                                I                0
Atom Types                                 C   N=           3
                                    
Int Atom Types                             I   N=           3
           0           0           0
MM charges                                 R   N=           3
  0.00000000E+00  0.00000000E+00  0.00000000E+00
Integer atomic weights                     I   N=           3
          16           1           1
Real atomic weights                        R   N=           3
  1.59949146E+01  1.00782504E+00  1.00782504E+00
Atom fragment info                         I   N=           3
           0           0           0
Atom residue num                           I   N=           3
           0           0           0
Nuclear spins                              I   N=           3
           0           1           1
Nuclear ZEff                               R   N=           3
 -5.60000000E+00 -1.00000000E+00 -1.00000000E+00
Nuclear ZNuc                               R   N=           3
  8.00000000E+00  1.00000000E+00  1.00000000E+00
Nuclear QMom                               R   N=           3
  0.00000000E+00  0.00000000E+00  0.00000000E+00
Nuclear GFac                               R   N=           3
  0.00000000E+00  2.79284600E+00  2.79284600E+00
MicOpt                                     I   N=           3
          -1          -1          -1
Number of residues                         I                0
Number of secondary structures             I                0
SymInf integers                            I   N=          26
           2           4           1           1           1          -1
          -1           1          -1           1           1           1
          -1           1           0           0           0           0
           0           0           0           0           0           0
           0           0
RotTr to input orientation                 R   N=          12
  1.00000000E+00 -1.83697020E-16 -6.12323400E-17  1.83697020E-16  1.00000000E+00
 -6.12323400E-17  6.12323400E-17  6.12323400E-17  1.00000000E+00  0.00000000E+00
  0.00000000E+00  7.55890461E-10
Number of contracted shells                I                8
Number of primitive shells                 I               19
Pure/Cartesian d shells                    I                1
Pure/Cartesian f shells                    I                1
Highest angular momentum                   I                2
Largest degree of contraction              I                6
Shell types                                I   N=           8
           0          -1          -1           2           0           0
           0           0
Number of primitives per shell             I   N=           8
           6           3           1           1           3           1
           3           1
Shell to atom map                          I   N=           8
           1           1           1           1           2           2
           3           3
Primitive exponents                        R   N=          19
  5.48467166E+03  8.25234946E+02  1.88046958E+02  5.29645000E+01  1.68975704E+01
  5.79963534E+00  1.55396162E+01  3.59993359E+00  1.01376175E+00  2.70005823E-01
  8.00000000E-01  1.87311370E+01  2.82539436E+00  6.40121692E-01  1.61277759E-01
  1.87311370E+01  2.82539436E+00  6.40121692E-01  1.61277759E-01
Contraction coefficients                   R   N=          19
  1.83107443E-03  1.39501722E-02  6.84450781E-02  2.32714336E-01  4.70192898E-01
  3.58520853E-01 -1.10777550E-01 -1.48026263E-01  1.13076702E+00  1.00000000E+00
  1.00000000E+00  3.34946043E-02  2.34726953E-01  8.13757326E-01  1.00000000E+00
  3.34946043E-02  2.34726953E-01  8.13757326E-01  1.00000000E+00
P(S=P) Contraction coefficients            R   N=          19
  0.00000000E+00  0.00000000E+00  0.00000000E+00  0.00000000E+00  0.00000000E+00
  0.00000000E+00  7.08742682E-02  3.39752839E-01  7.27158577E-01  1.00000000E+00
  0.00000000E+00  0.00000000E+00  0.00000000E+00  0.00000000E+00  0.00000000E+00
  0.00000000E+00  0.00000000E+00  0.00000000E+00  0.00000000E+00
Coordinates of each shell                  R   N=          24
  6.96465636E-34 -1.39293127E-33  2.26016021E-01  6.96465636E-34 -1.39293127E-33
  2.26016021E-01  6.96465636E-34 -1.39293127E-33  2.26016021E-01  6.96465636E-34
 -1.39293127E-33  2.26016021E-01  0.00000000E+00  1.43961729E+00 -9.04064084E-01
  0.00000000E+00  1.43961729E+00 -9.04064084E-01 -1.76302271E-16 -1.43961729E+00
 -9.04064084E-01 -1.76302271E-16 -1.43961729E+00 -9.04064084E-01
Num ILSW                                   I              100
ILSW                                       I   N=         100
           0           1           0           0           2           0
           0           0           0           0           0          -1
           5           0           0           1           0           0
           0           0           0           0           0           0
           1           0           0           0           0           0
           0           0      100000           0          -1           0
           0           0           0           0           0           0
           0           0           0           1           0           0
           0 -2000000000           1           0           0           0
           0           0           4          52           0           0
           0           0           0           0           0           0
           0           0           0           3           0           1
           0           0           0           0           0           0
           0           0           0           0           0           0
           0           0           0           0           0           0
           0           0           0           0           0           0
           0           0           0           0
Num RLSW                                   I               52
RLSW                                       R   N=          52
  1.00000000E+00  1.00000000E+00  1.00000000E+00  1.00000000E+00  1.00000000E+00
  0.00000000E+00  0.00000000E+00  1.00000000E+00  0.00000000E+00  0.00000000E+00
  0.00000000E+00  0.00000000E+00  1.00000000E+00  0.00000000E+00  0.00000000E+00
  0.00000000E+00  0.00000000E+00  1.00000000E+00  0.00000000E+00  0.00000000E+00
  0.00000000E+00  0.00000000E+00  1.00000000E+00  0.00000000E+00  0.00000000E+00
  0.00000000E+00  0.00000000E+00  1.00000000E+00  0.00000000E+00  0.00000000E+00
  0.00000000E+00  0.00000000E+00  1.00000000E+00  0.00000000E+00  0.00000000E+00
  0.00000000E+00  0.00000000E+00  0.00000000E+00  1.00000000E+00  1.00000000E+00
  0.00000000E+00  1.00000000E+00  0.00000000E+00  0.00000000E+00  0.00000000E+00
  0.00000000E+00  0.00000000E+00  0.00000000E+00  0.00000000E+00  0.00000000E+00
  0.00000000E+00  0.00000000E+00
MxBond                                     I                2
NBond                                      I   N=           3
           2           1           1
IBond                                      I   N=           6
           2           3           1           0           1           0
RBond                                      R   N=           6
  1.00000000E+00  1.00000000E+00  1.00000000E+00  0.00000000E+00  1.00000000E+00
  0.00000000E+00
Virial Ratio                               R      2.003046549418552E+00
SCF Energy                                 R     -7.600980036775006E+01
Total Energy                               R     -7.600980036775006E+01
RMS Density                                R      4.157097595653561E-09
Job Status                                 I                1
Nuclear derivative order                   I                0
External E-field                           R   N=          35
  0.00000000E+00  0.00000000E+00  0.00000000E+00  0.00000000E+00  0.00000000E+00
  0.00000000E+00  0.00000000E+00  0.00000000E+00  0.00000000E+00  0.00000000E+00
  0.00000000E+00  0.00000000E+00  0.00000000E+00  0.00000000E+00  0.00000000E+00
  0.00000000E+00  0.00000000E+00  0.00000000E+00  0.00000000E+00  0.00000000E+00
  0.00000000E+00  0.00000000E+00  0.00000000E+00  0.00000000E+00  0.00000000E+00
  0.00000000E+00  0.00000000E+00  0.00000000E+00  0.00000000E+00  0.00000000E+00
  0.00000000E+00  0.00000000E+00  0.00000000E+00  0.00000000E+00  0.00000000E+00
IOpCl                                      I                0
IROHF                                      I                0
Alpha Orbital Energies                     R   N=          19
 -2.05630339E+01 -1.33670190E+00 -6.99362970E-01 -5.70545599E-01 -4.97472090E-01
  2.08187256E-01  3.00987315E-01  1.01421472E+00  1.12867683E+00  1.16353996E+00
  1.16758618E+00  1.37657345E+00  1.43642212E+00  2.02071989E+00  2.03706926E+00
  2.06882594E+00  2.60787319E+00  2.92640141E+00  3.96321645E+00
Alpha MO coefficients                      R   N=         361
  9.94653230E-01  2.11053869E-02  0.00000000E+00  0.00000000E+00 -1.33312704E-03
  4.02829643E-03  0.00000000E+00  0.00000000E+00  4.82589291E-04 -3.88342074E-03
 -4.18021639E-03 -4.05430024E-03  0.00000000E+00  0.00000000E+00  0.00000000E+00
  3.38684869E-04 -1.86629483E-04  3.38684869E-04 -1.86629483E-04 -2.09919188E-01
  4.76100465E-01  0.00000000E+00  0.00000000E+00 -9.10196209E-02  4.43926389E-01
  0.00000000E+00  0.00000000E+00 -5.15826611E-02 -1.44290741E-03  2.58072727E-02
  2.13467219E-02  0.00000000E+00  0.00000000E+00  0.00000000E+00  1.28668036E-01
  2.31647490E-03  1.28668036E-01  2.31647490E-03  0.00000000E+00  0.00000000E+00
  0.00000000E+00  5.06024392E-01  0.00000000E+00  0.00000000E+00  0.00000000E+00
  3.09191137E-01  0.00000000E+00  0.00000000E+00  0.00000000E+00  0.00000000E+00
  0.00000000E+00  0.00000000E+00 -5.13046229E-02  2.29408481E-01  1.14607472E-01
 -2.29408481E-01 -1.14607472E-01 -7.33877915E-02  1.65060664E-01  0.00000000E+00
  0.00000000E+00  5.53127460E-01  3.24636251E-01  0.00000000E+00  0.00000000E+00
  4.01921018E-01  1.18018439E-02 -4.02041728E-04 -4.62578904E-02  0.00000000E+00
  0.00000000E+00  0.00000000E+00 -1.42596566E-01 -8.86768908E-02 -1.42596566E-01
 -8.86768908E-02  0.00000000E+00  0.00000000E+00  6.40010646E-01  0.00000000E+00
  0.00000000E+00  0.00000000E+00  5.11060515E-01  0.00000000E+00  0.00000000E+00
  0.00000000E+00  0.00000000E+00  0.00000000E+00  0.00000000E+00 -3.35345926E-02
  0.00000000E+00  0.00000000E+00  0.00000000E+00  0.00000000E+00  0.00000000E+00
 -9.99289331E-02  5.84096292E-02  0.00000000E+00  0.00000000E+00 -2.22723157E-01
  1.38772712E+00  0.00000000E+00  0.00000000E+00 -5.13147760E-01 -7.03025601E-02
 -5.53156857E-02 -4.18027211E-02  0.00000000E+00  0.00000000E+00  0.00000000E+00
 -5.72262821E-02 -1.02988101E+00 -5.72262821E-02 -1.02988101E+00  0.00000000E+00
  0.00000000E+00  0.00000000E+00 -3.33298832E-01  0.00000000E+00  0.00000000E+00
  0.00000000E+00 -8.26410484E-01  0.00000000E+00  0.00000000E+00  0.00000000E+00
  0.00000000E+00  0.00000000E+00  0.00000000E+00  2.17812693E-02  5.36538953E-02
  1.37245785E+00 -5.36538953E-02 -1.37245785E+00  0.00000000E+00  0.00000000E+00
  0.00000000E+00 -1.05230653E-01  0.00000000E+00  0.00000000E+00  0.00000000E+00
 -6.11816715E-01  0.00000000E+00  0.00000000E+00  0.00000000E+00  0.00000000E+00
  0.00000000E+00  0.00000000E+00 -1.97895498E-01  8.38601988E-01 -5.00150664E-01
 -8.38601988E-01  5.00150664E-01  7.65042088E-03 -9.27348784E-01  0.00000000E+00
  0.00000000E+00 -3.13553901E-01  1.64305818E+00  0.00000000E+00  0.00000000E+00
  6.28803706E-01 -3.97106537E-01 -1.65485651E-01 -3.09168748E-01  0.00000000E+00
  0.00000000E+00  0.00000000E+00  6.16935676E-01 -5.32442183E-01  6.16935676E-01
 -5.32442183E-01  4.83231621E-02  2.12673118E-01  0.00000000E+00  0.00000000E+00
  8.05386968E-01 -6.43654022E-01  0.00000000E+00  0.00000000E+00 -4.59801473E-01
 -6.44252263E-03  2.63419033E-01  1.27868652E-01  0.00000000E+00  0.00000000E+00
  0.00000000E+00  5.88870890E-01 -3.07382170E-01  5.88870890E-01 -3.07382170E-01
  0.00000000E+00  0.00000000E+00 -9.62487253E-01  0.00000000E+00  0.00000000E+00
  0.00000000E+00  1.03624423E+00  0.00000000E+00  0.00000000E+00  0.00000000E+00
  0.00000000E+00  0.00000000E+00  0.00000000E+00 -1.48802051E-02  0.00000000E+00
  0.00000000E+00  0.00000000E+00  0.00000000E+00  0.00000000E+00  0.00000000E+00
  0.00000000E+00  0.00000000E+00 -1.03406597E+00  0.00000000E+00  0.00000000E+00
  0.00000000E+00  1.53349434E+00  0.00000000E+00  0.00000000E+00  0.00000000E+00
  0.00000000E+00  0.00000000E+00  0.00000000E+00 -9.49500756E-03  8.65059960E-02
 -8.91122191E-01 -8.65059960E-02  8.91122191E-01 -8.56843042E-02 -1.39321935E+00
  0.00000000E+00  0.00000000E+00  5.14368109E-01  3.50339706E+00  0.00000000E+00
  0.00000000E+00 -1.18694785E+00 -2.62680701E-01 -6.43453750E-01 -4.01063745E-01
  0.00000000E+00  0.00000000E+00  0.00000000E+00 -3.40257130E-01 -7.56679465E-01
 -3.40257130E-01 -7.56679465E-01  6.94979566E-03  7.62326070E-02  0.00000000E+00
  0.00000000E+00 -6.71580490E-03 -2.19228485E-01  0.00000000E+00  0.00000000E+00
  1.27686421E-01 -3.51771996E-01 -5.94164662E-01  1.00640906E+00  0.00000000E+00
  0.00000000E+00  0.00000000E+00  7.38563481E-02  3.50811593E-02  7.38563481E-02
  3.50811593E-02  0.00000000E+00  0.00000000E+00  0.00000000E+00  0.00000000E+00
  0.00000000E+00  0.00000000E+00  0.00000000E+00  0.00000000E+00  0.00000000E+00
  0.00000000E+00  0.00000000E+00  0.00000000E+00  1.00000000E+00  0.00000000E+00
  0.00000000E+00  0.00000000E+00  0.00000000E+00  0.00000000E+00  0.00000000E+00
  0.00000000E+00  0.00000000E+00  7.14529888E-03  0.00000000E+00  0.00000000E+00
  0.00000000E+00  3.25796663E-02  0.00000000E+00  0.00000000E+00  0.00000000E+00
  0.00000000E+00  0.00000000E+00  0.00000000E+00  9.99326779E-01  0.00000000E+00
  0.00000000E+00  0.00000000E+00  0.00000000E+00  0.00000000E+00 -5.60589262E-02
 -4.92477415E-01  0.00000000E+00  0.00000000E+00  5.90253050E-02  1.53559537E+00
  0.00000000E+00  0.00000000E+00 -7.33175563E-01 -1.13511240E+00  7.33746687E-01
  5.59935246E-02  0.00000000E+00  0.00000000E+00  0.00000000E+00 -8.21844953E-01
 -1.35138914E-01 -8.21844953E-01 -1.35138914E-01  0.00000000E+00  0.00000000E+00
  0.00000000E+00  3.02099539E-02  0.00000000E+00  0.00000000E+00  0.00000000E+00
 -8.34223772E-01  0.00000000E+00  0.00000000E+00  0.00000000E+00  0.00000000E+00
  0.00000000E+00  0.00000000E+00  1.27167925E+00  9.28583883E-01 -4.98147719E-02
 -9.28583883E-01  4.98147719E-02 -4.64583300E-01  3.33636063E-01  0.00000000E+00
  0.00000000E+00  1.14525886E-01  3.59472063E+00  0.00000000E+00  0.00000000E+00
 -3.20020734E-01 -1.56014264E+00 -1.51810953E+00 -1.53728214E+00  0.00000000E+00
  0.00000000E+00  0.00000000E+00  1.20570573E-01 -5.35294201E-01  1.20570573E-01
 -5.35294201E-01
Orthonormal basis                          R   N=         361
  3.17376056E-02  1.59024071E-01  0.00000000E+00  0.00000000E+00 -2.64278010E-02
  2.05164361E-01  0.00000000E+00  0.00000000E+00 -5.29119876E-02  1.36177854E-01
  1.53757419E-01  1.47010448E-01  0.00000000E+00  0.00000000E+00  0.00000000E+00
  1.16797186E-01  1.61182645E-01  1.16797186E-01  1.61182645E-01  6.46970219E-02
  1.82212477E-01  0.00000000E+00  0.00000000E+00  3.94042784E-01  1.35212932E-01
  0.00000000E+00  0.00000000E+00  4.73910371E-01  1.55253736E-01  7.43267671E-02
  1.05386233E-01  0.00000000E+00  0.00000000E+00  0.00000000E+00 -1.74675568E-01
 -9.47409982E-02 -1.74675568E-01 -9.47409982E-02  9.15294974E-01  2.13602736E-01
  0.00000000E+00  0.00000000E+00 -1.92167795E-01  5.11885828E-03  0.00000000E+00
  0.00000000E+00 -8.52512765E-02 -1.74408454E-02 -1.20712275E-01 -8.10770891E-02
  0.00000000E+00  0.00000000E+00  0.00000000E+00 -6.38302866E-02 -8.03182066E-02
 -6.38302866E-02 -8.03182066E-02 -2.83685107E-01  2.84444687E-01  0.00000000E+00
  0.00000000E+00 -5.92168057E-01  6.99756267E-02  0.00000000E+00  0.00000000E+00
 -5.15822242E-02  6.27632351E-01 -2.69960659E-01  7.45321574E-02  0.00000000E+00
  0.00000000E+00  0.00000000E+00 -2.67858181E-01 -1.90199147E-01 -2.67858181E-01
 -1.90199147E-01 -1.15676763E-01  3.21756220E-01  0.00000000E+00  0.00000000E+00
 -4.82621199E-01 -9.24837987E-03  0.00000000E+00  0.00000000E+00  2.35274956E-01
 -5.31308409E-01  6.56630625E-01  2.00704098E-01  0.00000000E+00  0.00000000E+00
  0.00000000E+00  9.35140745E-02 -3.90437028E-01  9.35140745E-02 -3.90437028E-01
 -6.08608433E-17  6.89148661E-17  0.00000000E+00  0.00000000E+00 -4.75249161E-17
 -1.21704953E-16  0.00000000E+00  0.00000000E+00  1.78611486E-16 -3.80387184E-01
 -6.10730370E-01  9.91117554E-01  0.00000000E+00  0.00000000E+00  0.00000000E+00
 -7.42343636E-17  1.84607973E-16 -7.42343636E-17  1.84607973E-16  1.70263322E-01
 -7.79910081E-01  0.00000000E+00  0.00000000E+00 -7.23179064E-01  2.24657977E-01
  0.00000000E+00  0.00000000E+00  8.99501646E-01 -4.47219991E-02  3.07110966E-02
  1.76015856E-03  0.00000000E+00  0.00000000E+00  0.00000000E+00 -1.12699887E-01
  3.98450739E-01 -1.12699887E-01  3.98450739E-01  2.67852881E-01 -8.25525994E-01
  0.00000000E+00  0.00000000E+00  1.05175069E-01 -2.29088914E-03  0.00000000E+00
  0.00000000E+00  1.24552652E-01  8.21656254E-01  5.12163898E-02  3.46908308E-01
  0.00000000E+00  0.00000000E+00  0.00000000E+00  7.42394462E-01 -6.56296531E-01
  7.42394462E-01 -6.56296531E-01 -2.58794207E-01  9.62449118E-01  0.00000000E+00
  0.00000000E+00 -1.85426557E-01 -6.26199958E-02  0.00000000E+00  0.00000000E+00
  9.54950437E-01 -2.21804341E-01 -1.12696756E+00 -7.79569326E-01  0.00000000E+00
  0.00000000E+00  0.00000000E+00  9.10617052E-01  5.89719554E-02  9.10617052E-01
  5.89719554E-02 -4.15946206E-01 -9.79328744E-01  0.00000000E+00  0.00000000E+00
  2.17049255E-01  5.72925243E+00  0.00000000E+00  0.00000000E+00 -1.03451529E+00
 -1.57731733E+00 -1.23135297E+00 -1.36413279E+00  0.00000000E+00  0.00000000E+00
  0.00000000E+00 -2.38629997E-01 -1.22560595E+00 -2.38629997E-01 -1.22560595E+00
  0.00000000E+00  0.00000000E+00  0.00000000E+00  0.00000000E+00  0.00000000E+00
  0.00000000E+00  0.00000000E+00  0.00000000E+00  0.00000000E+00  0.00000000E+00
  0.00000000E+00  0.00000000E+00  1.00000000E+00  0.00000000E+00  0.00000000E+00
  0.00000000E+00  0.00000000E+00  0.00000000E+00  0.00000000E+00  0.00000000E+00
  0.00000000E+00  5.77057836E-01  0.00000000E+00  0.00000000E+00  0.00000000E+00
  5.77057836E-01  0.00000000E+00  0.00000000E+00  0.00000000E+00  0.00000000E+00
  0.00000000E+00  0.00000000E+00  0.00000000E+00  0.00000000E+00  0.00000000E+00
  0.00000000E+00  0.00000000E+00  0.00000000E+00  0.00000000E+00  0.00000000E+00
  0.00000000E+00  0.00000000E+00  0.00000000E+00  0.00000000E+00  0.00000000E+00
  0.00000000E+00  0.00000000E+00  0.00000000E+00  0.00000000E+00  0.00000000E+00
  0.00000000E+00  1.00000000E+00  0.00000000E+00  0.00000000E+00  0.00000000E+00
  0.00000000E+00  0.00000000E+00  0.00000000E+00  0.00000000E+00  1.00152416E+00
  0.00000000E+00  0.00000000E+00  0.00000000E+00 -1.00152416E+00  0.00000000E+00
  0.00000000E+00  0.00000000E+00  0.00000000E+00  0.00000000E+00  0.00000000E+00
  0.00000000E+00  0.00000000E+00  0.00000000E+00  0.00000000E+00  0.00000000E+00
  0.00000000E+00  0.00000000E+00  0.00000000E+00  0.00000000E+00  2.67447984E-01
  0.00000000E+00  0.00000000E+00  0.00000000E+00  3.84936381E-01  0.00000000E+00
  0.00000000E+00  0.00000000E+00  0.00000000E+00  0.00000000E+00  0.00000000E+00
 -1.46574917E-01  2.62964221E-01  1.65942774E-01 -2.62964221E-01 -1.65942774E-01
  0.00000000E+00  0.00000000E+00  0.00000000E+00  3.74021590E-01  0.00000000E+00
  0.00000000E+00  0.00000000E+00  2.61562458E-01  0.00000000E+00  0.00000000E+00
  0.00000000E+00  0.00000000E+00  0.00000000E+00  0.00000000E+00  7.70156970E-01
 -1.82751946E-01  2.49601519E-02  1.82751946E-01 -2.49601519E-02  0.00000000E+00
  0.00000000E+00  0.00000000E+00  9.74639914E-01  0.00000000E+00  0.00000000E+00
  0.00000000E+00 -3.60977088E-01  0.00000000E+00  0.00000000E+00  0.00000000E+00
  0.00000000E+00  0.00000000E+00  0.00000000E+00 -3.95532797E-01 -1.38394171E-01
 -3.22105085E-01  1.38394171E-01  3.22105085E-01  0.00000000E+00  0.00000000E+00
  0.00000000E+00 -1.94695225E-02  0.00000000E+00  0.00000000E+00  0.00000000E+00
 -7.20956570E-01  0.00000000E+00  0.00000000E+00  0.00000000E+00  0.00000000E+00
  0.00000000E+00  0.00000000E+00  8.73618115E-01  1.21174022E+00 -6.82490239E-01
 -1.21174022E+00  6.82490239E-01  0.00000000E+00  0.00000000E+00  0.00000000E+00
  5.35448195E-01  0.00000000E+00  0.00000000E+00  0.00000000E+00 -1.82585146E+00
  0.00000000E+00  0.00000000E+00  0.00000000E+00  0.00000000E+00  0.00000000E+00
  0.00000000E+00  3.53902129E-01  1.96203573E-01  1.53160104E+00 -1.96203573E-01
 -1.53160104E+00
Total SCF Density                          R   N=         190
  2.07757376E+00 -1.82127039E-01  5.08724226E-01  0.00000000E+00  0.00000000E+00
  8.19227253E-01  0.00000000E+00  0.00000000E+00  6.16297582E-33  5.12121371E-01
 -4.56240737E-02  9.58739309E-02  0.00000000E+00  1.93663094E-33  6.28472670E-01
 -2.26012493E-01  5.30046508E-01  0.00000000E+00  8.57601771E-34  2.78307686E-01
  6.04951123E-01  0.00000000E+00  0.00000000E+00  6.54168341E-01  1.54074396E-33
 -2.01581183E-33  0.00000000E+00  5.22365701E-01  0.00000000E+00  0.00000000E+00
  1.54074396E-33  3.12916514E-01  1.92849691E-33  0.00000000E+00  3.08148791E-33
  1.91198318E-01 -3.63757930E-02  8.35860122E-02  0.00000000E+00  1.39904446E-33
  4.54015885E-01  2.15162344E-01  0.00000000E+00  1.01196992E-33  3.28403016E-01
 -8.85174857E-03  2.35818040E-03  0.00000000E+00  4.10727452E-35  1.33288679E-02
  6.35023625E-03  0.00000000E+00  2.96806699E-35  9.63192806E-03  3.12892917E-04
 -1.90916050E-02  2.42645363E-02  5.34552942E-51 -2.92939943E-34 -5.13155147E-03
  2.26183458E-02 -1.33638236E-51 -1.78542784E-34 -2.98962830E-03 -5.14975996E-05
  1.36730234E-03 -1.02378899E-02  4.88451713E-03  2.29103289E-34 -7.23884467E-34
 -5.50481500E-02 -1.11138938E-02  1.82943277E-34 -4.60040959E-34 -3.93901913E-02
 -1.12197038E-03  1.17289225E-03  5.22382461E-03  5.55968086E-35 -3.33580852E-34
 -1.32272846E-34  0.00000000E+00  3.33580852E-34 -2.22387234E-34 -1.05622350E-34
  1.23449714E-50  1.11193617E-34  5.21220081E-36 -2.08488032E-35 -2.77984043E-35
  1.78290488E-35  3.14962542E-35 -8.39086749E-36 -4.29249926E-02 -2.22387234E-34
  8.48461247E-35 -2.25953836E-35 -3.42764124E-02 -2.22387234E-34  7.13500649E-35
 -1.11333425E-36  1.83238540E-37 -8.01211862E-36  6.93069096E-36  2.24913781E-03
 -1.72291752E-34  1.90056008E-34 -2.77984043E-34 -5.19227812E-02 -5.52389068E-34
  1.21415594E-34 -1.66790426E-34 -3.17258693E-02 -3.56959142E-34 -4.35866733E-36
  4.20009067E-35  8.31286865E-35 -3.56368628E-51 -3.20988324E-35  5.26432865E-03
 -3.24163372E-02  7.54579522E-02 -3.08148791E-33  2.32172574E-01 -1.81171688E-01
  2.16569725E-02 -1.54074396E-33  1.41862138E-01 -1.27898867E-01 -3.73974748E-03
  6.75297017E-03  1.86829680E-02 -1.66790426E-34  3.33580852E-34 -2.35394312E-02
  1.79035220E-01  1.16717940E-02 -2.70762611E-02 -7.70371978E-34  1.15988352E-01
 -9.85204384E-02 -5.55202818E-02 -7.70371978E-34  7.08712290E-02 -7.15213724E-02
 -2.09833705E-03  1.92427723E-04  8.30442338E-03 -2.77984043E-35  1.66790426E-34
 -1.17597862E-02  7.84698784E-02  4.20077289E-02 -3.24163372E-02  7.54579522E-02
  3.08148791E-33 -2.32172574E-01 -1.81171688E-01  2.16569725E-02  1.54074396E-33
 -1.41862138E-01 -1.27898867E-01 -3.73974748E-03  6.75297017E-03  1.86829680E-02
 -1.66790426E-34 -3.33580852E-34  2.35394312E-02 -3.14777845E-02 -2.66978256E-02
  1.79035220E-01  1.16717940E-02 -2.70762611E-02  7.70371978E-34 -1.15988352E-01
 -9.85204384E-02 -5.55202818E-02  7.70371978E-34 -7.08712290E-02 -7.15213724E-02
 -2.09833705E-03  1.92427723E-04  8.30442338E-03 -2.77984043E-35 -1.66790426E-34
  1.17597862E-02 -2.66978256E-02 -1.05317615E-02  7.84698784E-02  4.20077289E-02
Mulliken Charges                           R   N=           3
 -8.63729818E-01  4.31864909E-01  4.31864909E-01
ONIOM Charges                              I   N=          16
           0           0           0           0           0           0
           0           0           0           0           0           0
           0           0           0           0
ONIOM Multiplicities                       I   N=          16
           1           0           0           0           0           0
           0           0           0           0           0           0
           0           0           0           0
Atom Layers                                I   N=           3
           1           1           1
Atom Modifiers                             I   N=           3
           0           0           0
Force Field                                I                0
Atom Modified Types                        C   N=           3
                                    
Int Atom Modified Types                    I   N=           3
           0           0           0
Link Atoms                                 I   N=           3
           0           0           0
Atom Modified MM Charges                   R   N=           3
  0.00000000E+00  0.00000000E+00  0.00000000E+00
Link Distances                             R   N=          12
  0.00000000E+00  0.00000000E+00  0.00000000E+00  0.00000000E+00  0.00000000E+00
  0.00000000E+00  0.00000000E+00  0.00000000E+00  0.00000000E+00  0.00000000E+00
  0.00000000E+00  0.00000000E+00
Cartesian Gradient                         R   N=           9
  0.00000000E+00  0.00000000E+00  0.00000000E+00  0.00000000E+00  0.00000000E+00
  0.00000000E+00  0.00000000E+00  0.00000000E+00  0.00000000E+00
Nonadiabatic coupling                      R   N=           9
  0.00000000E+00  0.00000000E+00  0.00000000E+00  0.00000000E+00  0.00000000E+00
  0.00000000E+00  0.00000000E+00  0.00000000E+00  0.00000000E+00
Dipole Moment                              R   N=           3
 -7.24105198E-17 -9.20936710E-18 -8.84449867E-01
Quadrupole Moment                          R   N=           6
 -1.08882075E+00  1.21909434E+00 -1.30273592E-01  1.06435969E-16  6.65638464E-17
 -2.02669120E-17
QEq coupling tensors                       R   N=          18
  1.94967072E+00  4.66507490E-17 -1.67100878E+00  3.64130954E-17  3.06820093E-17
 -2.78661937E-01  2.62352523E-01 -1.21750541E-18 -2.13251467E-01  1.12576262E-19
  3.17487559E-01 -4.91010560E-02  2.62352523E-01 -8.41936066E-17 -2.13251467E-01
 -6.66877896E-17 -3.17487559E-01 -4.91010560E-02
ClPar MaxAn                                I              200
ClPar NIntPar                              I                4
ClPar NRealPar                             I               16
ClPar NBits                                I               30
ClPar LenBitVec                            I                1
ClPar Read BitMap                          I   N=         200
           0           0           0           0           0           0
           0           0           0           0           0           0
           0           0           0           0           0           0
           0           0           0           0           0           0
           0           0           0           0           0           0
           0           0           0           0           0           0
           0           0           0           0           0           0
           0           0           0           0           0           0
           0           0           0           0           0           0
           0           0           0           0           0           0
           0           0           0           0           0           0
           0           0           0           0           0           0
           0           0           0           0           0           0
           0           0           0           0           0           0
           0           0           0           0           0           0
           0           0           0           0           0           0
           0           0           0           0           0           0
           0           0           0           0           0           0
           0           0           0           0           0           0
           0           0           0           0           0           0
           0           0           0           0           0           0