[Molden Format]
[Atoms] Angs
O     1    8         0.0000000000        0.0000000000        0.1196030000
H     2    1         0.0000000000        0.7618130000       -0.4784100000
H     3    1         0.0000000000       -0.7618130000       -0.4784100000
[GTO]
  1 0
  s 6 1.00
  0.5484671660d+04 0.1831074430d-02
  0.8252349460d+03 0.1395017220d-01
  0.1880469580d+03 0.6844507810d-01
  0.5296450000d+02 0.2327143360d+00
  0.1689757040d+02 0.4701928980d+00
  0.5799635340d+01 0.3585208530d+00
  sp 3 1.00
  0.1553961625d+02 -0.1107775495d+00 0.7087426823d-01
  0.3599933586d+01 -0.1480262627d+00 0.3397528391d+00
  0.1013761750d+01 0.1130767015d+01 0.7271585773d+00
  sp 1 1.00
  0.2700058226d+00 0.1000000000d+01 0.1000000000d+01
  d 1 1.00
  0.8000000000d+00 0.1000000000d+01
  f 1 1.00
  0.1400000000d+01 0.1000000000d+01
 
  2 0
  s 3 1.00
  0.1873113696d+02 0.3349460434d-01
  0.2825394365d+01 0.2347269535d+00
  0.6401216923d+00 0.8137573261d+00
  s 1 1.00
  0.1612777588d+00 0.1000000000d+01
 
  3 0
  s 3 1.00
  0.1873113696d+02 0.3349460434d-01
  0.2825394365d+01 0.2347269535d+00
  0.6401216923d+00 0.8137573261d+00
  s 1 1.00
  0.1612777588d+00 0.1000000000d+01
 
[MO]
 Sym=            1
 Ene=   -20.5644400000000     
 Spin= Alpha
 Occup=    2.000000    
     1        0.9946100000
     2        0.0209300000
     3        0.0000000000
     4        0.0000000000
     5       -0.0024400000
     6        0.0048300000
     7        0.0000000000
     8        0.0000000000
     9       -0.0003000000
    10       -0.0040400000
    11       -0.0043200000
    12       -0.0042000000
    13        0.0000000000
    14        0.0000000000
    15        0.0000000000
    16        0.0000000000
    17        0.0000000000
    18        0.0012000000
    19        0.0000000000
    20        0.0000000000
    21        0.0005500000
    22        0.0000000000
    23        0.0000000000
    24        0.0004600000
    25        0.0000000000
    26        0.0003600000
    27       -0.0004700000
    28        0.0003600000
    29       -0.0004700000
 Sym=            2
 Ene=   -1.33665000000000     
 Spin= Alpha
 Occup=    2.000000    
     1       -0.2096200000
     2        0.4768500000
     3        0.0000000000
     4        0.0000000000
     5       -0.0818300000
     6        0.4390500000
     7        0.0000000000
     8        0.0000000000
     9       -0.0442900000
    10       -0.0009900000
    11        0.0282900000
    12        0.0227600000
    13        0.0000000000
    14        0.0000000000
    15        0.0000000000
    16        0.0000000000
    17        0.0000000000
    18       -0.0073500000
    19        0.0000000000
    20        0.0000000000
    21        0.0006800000
    22        0.0000000000
    23        0.0000000000
    24       -0.0148200000
    25        0.0000000000
    26        0.1245900000
    27        0.0058800000
    28        0.1245900000
    29        0.0058800000
 Sym=            3
 Ene=  -0.698230000000000     
 Spin= Alpha
 Occup=    2.000000    
     1        0.0000000000
     2        0.0000000000
     3        0.0000000000
     4        0.4985200000
     5        0.0000000000
     6        0.0000000000
     7        0.0000000000
     8        0.2976600000
     9        0.0000000000
    10        0.0000000000
    11        0.0000000000
    12        0.0000000000
    13        0.0000000000
    14        0.0000000000
    15       -0.0525100000
    16        0.0000000000
    17        0.0156500000
    18        0.0000000000
    19        0.0000000000
    20       -0.0049000000
    21        0.0000000000
    22        0.0000000000
    23        0.0081200000
    24        0.0000000000
    25        0.0000000000
    26        0.2263000000
    27        0.1226100000
    28       -0.2263000000
    29       -0.1226100000
 Sym=            4
 Ene=  -0.570450000000000     
 Spin= Alpha
 Occup=    2.000000    
     1       -0.0730500000
     2        0.1652200000
     3        0.0000000000
     4        0.0000000000
     5        0.5540800000
     6        0.3214800000
     7        0.0000000000
     8        0.0000000000
     9        0.4046100000
    10        0.0125800000
    11       -0.0018000000
    12       -0.0461300000
    13        0.0000000000
    14        0.0000000000
    15        0.0000000000
    16        0.0000000000
    17        0.0000000000
    18        0.0003800000
    19        0.0000000000
    20        0.0000000000
    21       -0.0072100000
    22        0.0000000000
    23        0.0000000000
    24        0.0045400000
    25        0.0000000000
    26       -0.1401500000
    27       -0.0884400000
    28       -0.1401500000
    29       -0.0884400000
 Sym=            5
 Ene=  -0.499450000000000     
 Spin= Alpha
 Occup=    2.000000    
     1        0.0000000000
     2        0.0000000000
     3        0.6442700000
     4        0.0000000000
     5        0.0000000000
     6        0.0000000000
     7        0.5155800000
     8        0.0000000000
     9        0.0000000000
    10        0.0000000000
    11        0.0000000000
    12        0.0000000000
    13        0.0000000000
    14       -0.0332400000
    15        0.0000000000
    16       -0.0147200000
    17        0.0000000000
    18        0.0000000000
    19        0.0055600000
    20        0.0000000000
    21        0.0000000000
    22        0.0012000000
    23        0.0000000000
    24        0.0000000000
    25        0.0000000000
    26        0.0000000000
    27        0.0000000000
    28        0.0000000000
    29        0.0000000000
 Sym=            6
 Ene=   0.208090000000000     
 Spin= Alpha
 Occup=   0.0000000E+00
     1       -0.1006100000
     2        0.0549800000
     3        0.0000000000
     4        0.0000000000
     5       -0.2279800000
     6        1.4027500000
     7        0.0000000000
     8        0.0000000000
     9       -0.5308900000
    10       -0.0723700000
    11       -0.0560500000
    12       -0.0438400000
    13        0.0000000000
    14        0.0000000000
    15        0.0000000000
    16        0.0000000000
    17        0.0000000000
    18        0.0141000000
    19        0.0000000000
    20        0.0000000000
    21        0.0096300000
    22        0.0000000000
    23        0.0000000000
    24        0.0001700000
    25        0.0000000000
    26       -0.0586000000
    27       -1.0355900000
    28       -0.0586000000
    29       -1.0355900000
 Sym=            7
 Ene=   0.299900000000000     
 Spin= Alpha
 Occup=   0.0000000E+00
     1        0.0000000000
     2        0.0000000000
     3        0.0000000000
     4       -0.3443300000
     5        0.0000000000
     6        0.0000000000
     7        0.0000000000
     8       -0.8678000000
     9        0.0000000000
    10        0.0000000000
    11        0.0000000000
    12        0.0000000000
    13        0.0000000000
    14        0.0000000000
    15        0.0219300000
    16        0.0000000000
    17        0.0207300000
    18        0.0000000000
    19        0.0000000000
    20        0.0166500000
    21        0.0000000000
    22        0.0000000000
    23        0.0122700000
    24        0.0000000000
    25        0.0000000000
    26        0.0537900000
    27        1.3912900000
    28       -0.0537900000
    29       -1.3912900000
 Sym=            8
 Ene=    1.00692000000000     
 Spin= Alpha
 Occup=   0.0000000E+00
     1        0.0000000000
     2        0.0000000000
     3        0.0000000000
     4        0.0662600000
     5        0.0000000000
     6        0.0000000000
     7        0.0000000000
     8        0.8210500000
     9        0.0000000000
    10        0.0000000000
    11        0.0000000000
    12        0.0000000000
    13        0.0000000000
    14        0.0000000000
    15        0.1936500000
    16        0.0000000000
    17       -0.0672800000
    18        0.0000000000
    19        0.0000000000
    20       -0.0375700000
    21        0.0000000000
    22        0.0000000000
    23       -0.0433500000
    24        0.0000000000
    25        0.0000000000
    26       -0.8172500000
    27        0.3821800000
    28        0.8172500000
    29       -0.3821800000
 Sym=            9
 Ene=    1.06568000000000     
 Spin= Alpha
 Occup=   0.0000000E+00
     1        0.0000000000
     2        0.0000000000
     3       -0.7459800000
     4        0.0000000000
     5        0.0000000000
     6        0.0000000000
     7        1.1282800000
     8        0.0000000000
     9        0.0000000000
    10        0.0000000000
    11        0.0000000000
    12        0.0000000000
    13        0.0000000000
    14       -0.0075800000
    15        0.0000000000
    16       -0.2071200000
    17        0.0000000000
    18        0.0000000000
    19       -0.0937800000
    20        0.0000000000
    21        0.0000000000
    22       -0.0930500000
    23        0.0000000000
    24        0.0000000000
    25        0.0000000000
    26        0.0000000000
    27        0.0000000000
    28        0.0000000000
    29        0.0000000000
 Sym=           10
 Ene=    1.06985000000000     
 Spin= Alpha
 Occup=   0.0000000E+00
     1       -0.0046800000
     2       -0.5814900000
     3        0.0000000000
     4        0.0000000000
     5       -0.6457800000
     6        0.9637400000
     7        0.0000000000
     8        0.0000000000
     9        1.0655000000
    10       -0.2194600000
    11       -0.1835400000
    12       -0.2165500000
    13        0.0000000000
    14        0.0000000000
    15        0.0000000000
    16        0.0000000000
    17        0.0000000000
    18       -0.1907200000
    19        0.0000000000
    20        0.0000000000
    21       -0.0852700000
    22        0.0000000000
    23        0.0000000000
    24       -0.0849000000
    25        0.0000000000
    26        0.1304700000
    27       -0.0428900000
    28        0.1304700000
    29       -0.0428900000
 Sym=           11
 Ene=    1.14701000000000     
 Spin= Alpha
 Occup=   0.0000000E+00
     1        0.0355300000
     2       -0.5243200000
     3        0.0000000000
     4        0.0000000000
     5        0.3739400000
     6        0.7946700000
     7        0.0000000000
     8        0.0000000000
     9       -0.0113500000
    10       -0.2882800000
    11        0.0572400000
    12       -0.1343600000
    13        0.0000000000
    14        0.0000000000
    15        0.0000000000
    16        0.0000000000
    17        0.0000000000
    18        0.0487400000
    19        0.0000000000
    20        0.0000000000
    21        0.0223800000
    22        0.0000000000
    23        0.0000000000
    24        0.0150000000
    25        0.0000000000
    26        0.8313500000
    27       -0.6240500000
    28        0.8313500000
    29       -0.6240500000
 Sym=           12
 Ene=    1.26220000000000     
 Spin= Alpha
 Occup=   0.0000000E+00
     1        0.0000000000
     2        0.0000000000
     3        0.0000000000
     4       -0.8142600000
     5        0.0000000000
     6        0.0000000000
     7        0.0000000000
     8        1.6089900000
     9        0.0000000000
    10        0.0000000000
    11        0.0000000000
    12        0.0000000000
    13        0.0000000000
    14        0.0000000000
    15       -0.0427800000
    16        0.0000000000
    17       -0.2345800000
    18        0.0000000000
    19        0.0000000000
    20       -0.1061700000
    21        0.0000000000
    22        0.0000000000
    23       -0.1013100000
    24        0.0000000000
    25        0.0000000000
    26        0.1921500000
    27       -0.9992200000
    28       -0.1921500000
    29        0.9992200000
 Sym=           13
 Ene=    1.40227000000000     
 Spin= Alpha
 Occup=   0.0000000E+00
     1       -0.0948300000
     2       -1.5020900000
     3        0.0000000000
     4        0.0000000000
     5        0.2520100000
     6        3.7637100000
     7        0.0000000000
     8        0.0000000000
     9       -1.1152000000
    10       -0.3116800000
    11       -0.6870800000
    12       -0.4640200000
    13        0.0000000000
    14        0.0000000000
    15        0.0000000000
    16        0.0000000000
    17        0.0000000000
    18        0.1099700000
    19        0.0000000000
    20        0.0000000000
    21        0.0474200000
    22        0.0000000000
    23        0.0000000000
    24        0.0584100000
    25        0.0000000000
    26       -0.3600500000
    27       -0.7728600000
    28       -0.3600500000
    29       -0.7728600000
 Sym=           14
 Ene=    2.01790000000000     
 Spin= Alpha
 Occup=   0.0000000E+00
     1        0.0070200000
     2        0.0695500000
     3        0.0000000000
     4        0.0000000000
     5        0.0350400000
     6       -0.2053900000
     7        0.0000000000
     8        0.0000000000
     9        0.1208100000
    10       -0.3502500000
    11       -0.5962900000
    12        1.0060600000
    13        0.0000000000
    14        0.0000000000
    15        0.0000000000
    16        0.0000000000
    17        0.0000000000
    18       -0.0559300000
    19        0.0000000000
    20        0.0000000000
    21        0.0061800000
    22        0.0000000000
    23        0.0000000000
    24        0.0097000000
    25        0.0000000000
    26        0.0728400000
    27        0.0302000000
    28        0.0728400000
    29        0.0302000000
 Sym=           15
 Ene=    2.03380000000000     
 Spin= Alpha
 Occup=   0.0000000E+00
     1        0.0000000000
     2        0.0000000000
     3        0.0000000000
     4        0.0000000000
     5        0.0000000000
     6        0.0000000000
     7        0.0000000000
     8        0.0000000000
     9        0.0000000000
    10        0.0000000000
    11        0.0000000000
    12        0.0000000000
    13        0.9995300000
    14        0.0000000000
    15        0.0000000000
    16        0.0000000000
    17        0.0000000000
    18        0.0000000000
    19        0.0000000000
    20        0.0000000000
    21        0.0000000000
    22        0.0000000000
    23        0.0000000000
    24        0.0000000000
    25       -0.0306600000
    26        0.0000000000
    27        0.0000000000
    28        0.0000000000
    29        0.0000000000
 Sym=           16
 Ene=    2.06531000000000     
 Spin= Alpha
 Occup=   0.0000000E+00
     1        0.0000000000
     2        0.0000000000
     3        0.0340100000
     4        0.0000000000
     5        0.0000000000
     6        0.0000000000
     7        0.0320100000
     8        0.0000000000
     9        0.0000000000
    10        0.0000000000
    11        0.0000000000
    12        0.0000000000
    13        0.0000000000
    14        0.9990100000
    15        0.0000000000
    16        0.0030300000
    17        0.0000000000
    18        0.0000000000
    19       -0.0102700000
    20        0.0000000000
    21        0.0000000000
    22       -0.0344300000
    23        0.0000000000
    24        0.0000000000
    25        0.0000000000
    26        0.0000000000
    27        0.0000000000
    28        0.0000000000
    29        0.0000000000
 Sym=           17
 Ene=    2.59754000000000     
 Spin= Alpha
 Occup=   0.0000000E+00
     1       -0.0565700000
     2       -0.4804600000
     3        0.0000000000
     4        0.0000000000
     5       -0.0141200000
     6        1.5143500000
     7        0.0000000000
     8        0.0000000000
     9       -0.7248300000
    10       -1.1297000000
    11        0.7265700000
    12        0.0487700000
    13        0.0000000000
    14        0.0000000000
    15        0.0000000000
    16        0.0000000000
    17        0.0000000000
    18        0.0277900000
    19        0.0000000000
    20        0.0000000000
    21        0.0120200000
    22        0.0000000000
    23        0.0000000000
    24        0.0742800000
    25        0.0000000000
    26       -0.7952300000
    27       -0.1375000000
    28       -0.7952300000
    29       -0.1375000000
 Sym=           18
 Ene=    2.91624000000000     
 Spin= Alpha
 Occup=   0.0000000E+00
     1        0.0000000000
     2        0.0000000000
     3        0.0000000000
     4       -0.0548300000
     5        0.0000000000
     6        0.0000000000
     7        0.0000000000
     8       -0.8381300000
     9        0.0000000000
    10        0.0000000000
    11        0.0000000000
    12        0.0000000000
    13        0.0000000000
    14        0.0000000000
    15        1.2595400000
    16        0.0000000000
    17        0.0918000000
    18        0.0000000000
    19        0.0000000000
    20       -0.0189200000
    21        0.0000000000
    22        0.0000000000
    23        0.0495100000
    24        0.0000000000
    25        0.0000000000
    26        0.9044100000
    27       -0.0386700000
    28       -0.9044100000
    29        0.0386700000
 Sym=           19
 Ene=    3.96104000000000     
 Spin= Alpha
 Occup=   0.0000000E+00
     1       -0.4623900000
     2        0.3336500000
     3        0.0000000000
     4        0.0000000000
     5        0.1755000000
     6        3.5742200000
     7        0.0000000000
     8        0.0000000000
     9       -0.3023300000
    10       -1.5552800000
    11       -1.5070500000
    12       -1.5300800000
    13        0.0000000000
    14        0.0000000000
    15        0.0000000000
    16        0.0000000000
    17        0.0000000000
    18       -0.0530900000
    19        0.0000000000
    20        0.0000000000
    21       -0.0206000000
    22        0.0000000000
    23        0.0000000000
    24       -0.0297400000
    25        0.0000000000
    26        0.1112000000
    27       -0.5267800000
    28        0.1112000000
    29       -0.5267800000
 Sym=           20
 Ene=    4.99469000000000     
 Spin= Alpha
 Occup=   0.0000000E+00
     1        0.0000000000
     2        0.0000000000
     3        1.4211700000
     4        0.0000000000
     5        0.0000000000
     6        0.0000000000
     7        0.4896200000
     8        0.0000000000
     9        0.0000000000
    10        0.0000000000
    11        0.0000000000
    12        0.0000000000
    13        0.0000000000
    14       -0.0137900000
    15        0.0000000000
    16       -1.2157400000
    17        0.0000000000
    18        0.0000000000
    19       -0.6451000000
    20        0.0000000000
    21        0.0000000000
    22       -0.5965500000
    23        0.0000000000
    24        0.0000000000
    25        0.0000000000
    26        0.0000000000
    27        0.0000000000
    28        0.0000000000
    29        0.0000000000
 Sym=           21
 Ene=    5.05442000000000     
 Spin= Alpha
 Occup=   0.0000000E+00
     1        0.0687800000
     2        0.0755800000
     3        0.0000000000
     4        0.0000000000
     5        1.4043500000
     6       -0.8109900000
     7        0.0000000000
     8        0.0000000000
     9        0.6095800000
    10        0.2192000000
    11        0.2521200000
    12        0.2151900000
    13        0.0000000000
    14        0.0000000000
    15        0.0000000000
    16        0.0000000000
    17        0.0000000000
    18       -1.3726100000
    19        0.0000000000
    20        0.0000000000
    21       -0.5856900000
    22        0.0000000000
    23        0.0000000000
    24       -0.4969200000
    25        0.0000000000
    26       -0.0962000000
    27        0.2494500000
    28       -0.0962000000
    29        0.2494500000
 Sym=           22
 Ene=    5.13054000000000     
 Spin= Alpha
 Occup=   0.0000000E+00
     1        0.0000000000
     2        0.0000000000
     3        0.0000000000
     4       -1.3699500000
     5        0.0000000000
     6        0.0000000000
     7        0.0000000000
     8       -0.6957000000
     9        0.0000000000
    10        0.0000000000
    11        0.0000000000
    12        0.0000000000
    13        0.0000000000
    14        0.0000000000
    15       -0.0484000000
    16        0.0000000000
    17        1.4285800000
    18        0.0000000000
    19        0.0000000000
    20        0.6651700000
    21        0.0000000000
    22        0.0000000000
    23        0.3489400000
    24        0.0000000000
    25        0.0000000000
    26       -0.1453100000
    27        0.3560300000
    28        0.1453100000
    29       -0.3560300000
 Sym=           23
 Ene=    5.37341000000000     
 Spin= Alpha
 Occup=   0.0000000E+00
     1        0.0000000000
     2        0.0000000000
     3        0.0000000000
     4       -0.2084400000
     5        0.0000000000
     6        0.0000000000
     7        0.0000000000
     8       -0.0787300000
     9        0.0000000000
    10        0.0000000000
    11        0.0000000000
    12        0.0000000000
    13        0.0000000000
    14        0.0000000000
    15       -0.0145900000
    16        0.0000000000
    17       -0.7677800000
    18        0.0000000000
    19        0.0000000000
    20        0.5916900000
    21        0.0000000000
    22        0.0000000000
    23        0.8976200000
    24        0.0000000000
    25        0.0000000000
    26       -0.0614700000
    27        0.0646900000
    28        0.0614700000
    29       -0.0646900000
 Sym=           24
 Ene=    5.40899000000000     
 Spin= Alpha
 Occup=   0.0000000E+00
     1        0.0000000000
     2        0.0000000000
     3        0.0000000000
     4        0.0000000000
     5        0.0000000000
     6        0.0000000000
     7        0.0000000000
     8        0.0000000000
     9        0.0000000000
    10        0.0000000000
    11        0.0000000000
    12        0.0000000000
    13        0.0306600000
    14        0.0000000000
    15        0.0000000000
    16        0.0000000000
    17        0.0000000000
    18        0.0000000000
    19        0.0000000000
    20        0.0000000000
    21        0.0000000000
    22        0.0000000000
    23        0.0000000000
    24        0.0000000000
    25        0.9995300000
    26        0.0000000000
    27        0.0000000000
    28        0.0000000000
    29        0.0000000000
 Sym=           25
 Ene=    5.42465000000000     
 Spin= Alpha
 Occup=   0.0000000E+00
     1        0.0000000000
     2        0.0000000000
     3        0.0862100000
     4        0.0000000000
     5        0.0000000000
     6        0.0000000000
     7        0.0286100000
     8        0.0000000000
     9        0.0000000000
    10        0.0000000000
    11        0.0000000000
    12        0.0000000000
    13        0.0000000000
    14        0.0012100000
    15        0.0000000000
    16       -0.6889000000
    17        0.0000000000
    18        0.0000000000
    19        1.0560700000
    20        0.0000000000
    21        0.0000000000
    22       -0.3171300000
    23        0.0000000000
    24        0.0000000000
    25        0.0000000000
    26        0.0000000000
    27        0.0000000000
    28        0.0000000000
    29        0.0000000000
 Sym=           26
 Ene=    5.45988000000000     
 Spin= Alpha
 Occup=   0.0000000E+00
     1 -1.080000000000000E-003
     2  1.201000000000000E-002
     3  0.000000000000000E+000
     4  0.000000000000000E+000
     5 -5.896000000000000E-002
     6 -1.491000000000000E-002
     7  0.000000000000000E+000
     8  0.000000000000000E+000
     9  2.520000000000000E-003
    10  2.655000000000000E-002
    11 -1.121000000000000E-002
    12 -3.681000000000000E-002
    13  0.000000000000000E+000
    14  0.000000000000000E+000
    15  0.000000000000000E+000
    16  0.000000000000000E+000
    17  0.000000000000000E+000
    18 -0.876240000000000     
    19  0.000000000000000E+000
    20  0.000000000000000E+000
    21  0.960920000000000     
    22  0.000000000000000E+000
    23  0.000000000000000E+000
    24  0.340340000000000     
    25  0.000000000000000E+000
    26  4.100000000000000E-002
    27 -9.679999999999999E-003
    28  4.100000000000000E-002
    29 -9.679999999999999E-003
 Sym=           27
 Ene=    5.46893000000000     
 Spin= Alpha
 Occup=   0.0000000E+00
     1  0.000000000000000E+000
     2  0.000000000000000E+000
     3  5.081000000000000E-002
     4  0.000000000000000E+000
     5  0.000000000000000E+000
     6  0.000000000000000E+000
     7  1.681000000000000E-002
     8  0.000000000000000E+000
     9  0.000000000000000E+000
    10  0.000000000000000E+000
    11  0.000000000000000E+000
    12  0.000000000000000E+000
    13  0.000000000000000E+000
    14  2.498000000000000E-002
    15  0.000000000000000E+000
    16 -0.841200000000000     
    17  0.000000000000000E+000
    18  0.000000000000000E+000
    19 -1.769000000000000E-002
    20  0.000000000000000E+000
    21  0.000000000000000E+000
    22   1.03652000000000     
    23  0.000000000000000E+000
    24  0.000000000000000E+000
    25  0.000000000000000E+000
    26  0.000000000000000E+000
    27  0.000000000000000E+000
    28  0.000000000000000E+000
    29  0.000000000000000E+000
 Sym=           28
 Ene=    5.66992000000000     
 Spin= Alpha
 Occup=   0.0000000E+00
     1  0.000000000000000E+000
     2  0.000000000000000E+000
     3  0.000000000000000E+000
     4  0.240150000000000     
     5  0.000000000000000E+000
     6  0.000000000000000E+000
     7  0.000000000000000E+000
     8 -0.141050000000000     
     9  0.000000000000000E+000
    10  0.000000000000000E+000
    11  0.000000000000000E+000
    12  0.000000000000000E+000
    13  0.000000000000000E+000
    14  0.000000000000000E+000
    15  0.266620000000000     
    16  0.000000000000000E+000
    17 -0.433410000000000     
    18  0.000000000000000E+000
    19  0.000000000000000E+000
    20  0.892260000000000     
    21  0.000000000000000E+000
    22  0.000000000000000E+000
    23 -0.840130000000000     
    24  0.000000000000000E+000
    25  0.000000000000000E+000
    26  0.397960000000000     
    27 -0.144360000000000     
    28 -0.397960000000000     
    29  0.144360000000000     
 Sym=           29
 Ene=    5.85326000000000     
 Spin= Alpha
 Occup=   0.0000000E+00
     1  1.052000000000000E-002
     2  0.190050000000000     
     3  0.000000000000000E+000
     4  0.000000000000000E+000
     5 -0.124760000000000     
     6 -0.498240000000000     
     7  0.000000000000000E+000
     8  0.000000000000000E+000
     9  0.302590000000000     
    10  0.207300000000000     
    11 -0.192860000000000     
    12 -5.718000000000000E-002
    13  0.000000000000000E+000
    14  0.000000000000000E+000
    15  0.000000000000000E+000
    16  0.000000000000000E+000
    17  0.000000000000000E+000
    18 -0.278260000000000     
    19  0.000000000000000E+000
    20  0.000000000000000E+000
    21 -0.551420000000000     
    22  0.000000000000000E+000
    23  0.000000000000000E+000
    24   1.16297000000000     
    25  0.000000000000000E+000
    26  0.510110000000000     
    27 -3.317000000000000E-002
    28  0.510110000000000     
    29 -3.317000000000000E-002
