Energy water                                                            
SP        RHF                                                         6-31G(df)           
Number of atoms                            I                3
Info1-9                                    I   N=           9
          11          10           0           0           0         110
           1           1           2
Full Title                                 C   N=           1
Energy water
Route                                      C   N=           4
#P HF/6-31G(df) pop=full gfinput 6D 10F         
Charge                                     I                0
Multiplicity                               I                1
Number of electrons                        I               10
Number of alpha electrons                  I                5
Number of beta electrons                   I                5
Number of basis functions                  I               29
Number of independent functions            I               29
Number of point charges in /Mol/           I                0
Number of translation vectors              I                0
Atomic numbers                             I   N=           3
           8           1           1
Nuclear charges                            R   N=           3
  8.00000000E+00  1.00000000E+00  1.00000000E+00
Current cartesian coordinates              R   N=           9
  1.38394898E-17  1.38394898E-17  2.26016022E-01  2.09095447E-16  1.43961729E+00
 -9.04064083E-01 -4.96113637E-16 -1.43961729E+00 -9.04064083E-01
Number of symbols in /Mol/                 I                0
Force Field                                I                0
Atom Types                                 C   N=           3
                                    
Int Atom Types                             I   N=           3
           0           0           0
MM charges                                 R   N=           3
  0.00000000E+00  0.00000000E+00  0.00000000E+00
Integer atomic weights                     I   N=           3
          16           1           1
Real atomic weights                        R   N=           3
  1.59949146E+01  1.00782504E+00  1.00782504E+00
Atom fragment info                         I   N=           3
           0           0           0
Atom residue num                           I   N=           3
           0           0           0
Nuclear spins                              I   N=           3
           0           1           1
Nuclear ZEff                               R   N=           3
 -5.60000000E+00 -1.00000000E+00 -1.00000000E+00
Nuclear ZNuc                               R   N=           3
  8.00000000E+00  1.00000000E+00  1.00000000E+00
Nuclear QMom                               R   N=           3
  0.00000000E+00  0.00000000E+00  0.00000000E+00
Nuclear GFac                               R   N=           3
  0.00000000E+00  2.79284600E+00  2.79284600E+00
MicOpt                                     I   N=           3
          -1          -1          -1
Number of residues                         I                0
Number of secondary structures             I                0
SymInf integers                            I   N=          26
           2           4           1           1           1          -1
          -1           1          -1           1           1           1
          -1           1           0           0           0           0
           0           0           0           0           0           0
           0           0
RotTr to input orientation                 R   N=          12
  1.00000000E+00 -1.83697020E-16 -6.12323400E-17  1.83697020E-16  1.00000000E+00
 -6.12323400E-17  6.12323400E-17  6.12323400E-17  1.00000000E+00  0.00000000E+00
  0.00000000E+00  7.55890461E-10
Number of contracted shells                I                9
Number of primitive shells                 I               20
Pure/Cartesian d shells                    I                1
Pure/Cartesian f shells                    I                1
Highest angular momentum                   I                3
Largest degree of contraction              I                6
Shell types                                I   N=           9
           0          -1          -1           2           3           0
           0           0           0
Number of primitives per shell             I   N=           9
           6           3           1           1           1           3
           1           3           1
Shell to atom map                          I   N=           9
           1           1           1           1           1           2
           2           3           3
Primitive exponents                        R   N=          20
  5.48467166E+03  8.25234946E+02  1.88046958E+02  5.29645000E+01  1.68975704E+01
  5.79963534E+00  1.55396162E+01  3.59993359E+00  1.01376175E+00  2.70005823E-01
  8.00000000E-01  1.40000000E+00  1.87311370E+01  2.82539436E+00  6.40121692E-01
  1.61277759E-01  1.87311370E+01  2.82539436E+00  6.40121692E-01  1.61277759E-01
Contraction coefficients                   R   N=          20
  1.83107443E-03  1.39501722E-02  6.84450781E-02  2.32714336E-01  4.70192898E-01
  3.58520853E-01 -1.10777550E-01 -1.48026263E-01  1.13076702E+00  1.00000000E+00
  1.00000000E+00  1.00000000E+00  3.34946043E-02  2.34726953E-01  8.13757326E-01
  1.00000000E+00  3.34946043E-02  2.34726953E-01  8.13757326E-01  1.00000000E+00
P(S=P) Contraction coefficients            R   N=          20
  0.00000000E+00  0.00000000E+00  0.00000000E+00  0.00000000E+00  0.00000000E+00
  0.00000000E+00  7.08742682E-02  3.39752839E-01  7.27158577E-01  1.00000000E+00
  0.00000000E+00  0.00000000E+00  0.00000000E+00  0.00000000E+00  0.00000000E+00
  0.00000000E+00  0.00000000E+00  0.00000000E+00  0.00000000E+00  0.00000000E+00
Coordinates of each shell                  R   N=          27
  6.96465636E-34 -1.39293127E-33  2.26016021E-01  6.96465636E-34 -1.39293127E-33
  2.26016021E-01  6.96465636E-34 -1.39293127E-33  2.26016021E-01  6.96465636E-34
 -1.39293127E-33  2.26016021E-01  6.96465636E-34 -1.39293127E-33  2.26016021E-01
  0.00000000E+00  1.43961729E+00 -9.04064084E-01  0.00000000E+00  1.43961729E+00
 -9.04064084E-01 -1.76302271E-16 -1.43961729E+00 -9.04064084E-01 -1.76302271E-16
 -1.43961729E+00 -9.04064084E-01
Num ILSW                                   I              100
ILSW                                       I   N=         100
           0           1           0           0           2           0
           0           0           0           0           0          -1
           5           0           0           1           0           0
           0           0           0           0           0           0
           1           0           0           0           0           0
           0           0      100000           0          -1           0
           0           0           0           0           0           0
           0           0           0           1           0           0
           0 -2000000000           1           0           0           0
           0           0           4          52           0           0
           0           0           0           0           0           0
           0           0           0           3           0           1
           0           0           0           0           0           0
           0           0           0           0           0           0
           0           0           0           0           0           0
           0           0           0           0           0           0
           0           0           0           0
Num RLSW                                   I               52
RLSW                                       R   N=          52
  1.00000000E+00  1.00000000E+00  1.00000000E+00  1.00000000E+00  1.00000000E+00
  0.00000000E+00  0.00000000E+00  1.00000000E+00  0.00000000E+00  0.00000000E+00
  0.00000000E+00  0.00000000E+00  1.00000000E+00  0.00000000E+00  0.00000000E+00
  0.00000000E+00  0.00000000E+00  1.00000000E+00  0.00000000E+00  0.00000000E+00
  0.00000000E+00  0.00000000E+00  1.00000000E+00  0.00000000E+00  0.00000000E+00
  0.00000000E+00  0.00000000E+00  1.00000000E+00  0.00000000E+00  0.00000000E+00
  0.00000000E+00  0.00000000E+00  1.00000000E+00  0.00000000E+00  0.00000000E+00
  0.00000000E+00  0.00000000E+00  0.00000000E+00  1.00000000E+00  1.00000000E+00
  0.00000000E+00  1.00000000E+00  0.00000000E+00  0.00000000E+00  0.00000000E+00
  0.00000000E+00  0.00000000E+00  0.00000000E+00  0.00000000E+00  0.00000000E+00
  0.00000000E+00  0.00000000E+00
MxBond                                     I                2
NBond                                      I   N=           3
           2           1           1
IBond                                      I   N=           6
           2           3           1           0           1           0
RBond                                      R   N=           6
  1.00000000E+00  1.00000000E+00  1.00000000E+00  0.00000000E+00  1.00000000E+00
  0.00000000E+00
Virial Ratio                               R      2.003366308028943E+00
SCF Energy                                 R     -7.601477491979033E+01
Total Energy                               R     -7.601477491979033E+01
RMS Density                                R      3.409801848706926E-09
Job Status                                 I                1
Nuclear derivative order                   I                0
External E-field                           R   N=          35
  0.00000000E+00  0.00000000E+00  0.00000000E+00  0.00000000E+00  0.00000000E+00
  0.00000000E+00  0.00000000E+00  0.00000000E+00  0.00000000E+00  0.00000000E+00
  0.00000000E+00  0.00000000E+00  0.00000000E+00  0.00000000E+00  0.00000000E+00
  0.00000000E+00  0.00000000E+00  0.00000000E+00  0.00000000E+00  0.00000000E+00
  0.00000000E+00  0.00000000E+00  0.00000000E+00  0.00000000E+00  0.00000000E+00
  0.00000000E+00  0.00000000E+00  0.00000000E+00  0.00000000E+00  0.00000000E+00
  0.00000000E+00  0.00000000E+00  0.00000000E+00  0.00000000E+00  0.00000000E+00
IOpCl                                      I                0
IROHF                                      I                0
Alpha Orbital Energies                     R   N=          29
 -2.05644383E+01 -1.33664747E+00 -6.98226394E-01 -5.70446367E-01 -4.99446276E-01
  2.08087919E-01  2.99901744E-01  1.00692069E+00  1.06568057E+00  1.06985168E+00
  1.14700564E+00  1.26219672E+00  1.40226547E+00  2.01789605E+00  2.03379954E+00
  2.06530669E+00  2.59753756E+00  2.91624374E+00  3.96103761E+00  4.99469213E+00
  5.05442228E+00  5.13054457E+00  5.37341055E+00  5.40898743E+00  5.42465358E+00
  5.45987747E+00  5.46893199E+00  5.66991716E+00  5.85325744E+00
Alpha MO coefficients                      R   N=         841
  9.94612826E-01  2.09272373E-02  0.00000000E+00  0.00000000E+00 -2.44163277E-03
  4.82688614E-03  0.00000000E+00  0.00000000E+00 -2.99972161E-04 -4.04180302E-03
 -4.31544512E-03 -4.19694853E-03  0.00000000E+00  0.00000000E+00  0.00000000E+00
  0.00000000E+00  0.00000000E+00  1.20301288E-03  0.00000000E+00  0.00000000E+00
  5.50746824E-04  0.00000000E+00  0.00000000E+00  4.64900835E-04  0.00000000E+00
  3.64326254E-04 -4.70218232E-04  3.64326254E-04 -4.70218232E-04 -2.09620337E-01
  4.76850198E-01  0.00000000E+00  0.00000000E+00 -8.18316439E-02  4.39054469E-01
  0.00000000E+00  0.00000000E+00 -4.42888821E-02 -9.93307606E-04  2.82870728E-02
  2.27593854E-02  0.00000000E+00  0.00000000E+00  0.00000000E+00  0.00000000E+00
  0.00000000E+00 -7.35204912E-03  0.00000000E+00  0.00000000E+00  6.84076559E-04
  0.00000000E+00  0.00000000E+00 -1.48184716E-02  0.00000000E+00  1.24586355E-01
  5.88305289E-03  1.24586355E-01  5.88305289E-03  0.00000000E+00  0.00000000E+00
  0.00000000E+00  4.98522456E-01  0.00000000E+00  0.00000000E+00  0.00000000E+00
  2.97664982E-01  0.00000000E+00  0.00000000E+00  0.00000000E+00  0.00000000E+00
  0.00000000E+00  0.00000000E+00 -5.25146147E-02  0.00000000E+00  1.56507338E-02
  0.00000000E+00  0.00000000E+00 -4.89732139E-03  0.00000000E+00  0.00000000E+00
  8.11621760E-03  0.00000000E+00  0.00000000E+00  2.26296568E-01  1.22605892E-01
 -2.26296568E-01 -1.22605892E-01 -7.30545036E-02  1.65215125E-01  0.00000000E+00
  0.00000000E+00  5.54079475E-01  3.21483727E-01  0.00000000E+00  0.00000000E+00
  4.04608340E-01  1.25828598E-02 -1.80195207E-03 -4.61317974E-02  0.00000000E+00
  0.00000000E+00  0.00000000E+00  0.00000000E+00  0.00000000E+00  3.75667530E-04
  0.00000000E+00  0.00000000E+00 -7.21407272E-03  0.00000000E+00  0.00000000E+00
  4.53854505E-03  0.00000000E+00 -1.40152490E-01 -8.84440115E-02 -1.40152490E-01
 -8.84440115E-02  0.00000000E+00  0.00000000E+00  6.44267587E-01  0.00000000E+00
  0.00000000E+00  0.00000000E+00  5.15584246E-01  0.00000000E+00  0.00000000E+00
  0.00000000E+00  0.00000000E+00  0.00000000E+00  0.00000000E+00 -3.32365154E-02
  0.00000000E+00 -1.47248008E-02  0.00000000E+00  0.00000000E+00  5.55763162E-03
  0.00000000E+00  0.00000000E+00  1.20149648E-03  0.00000000E+00  0.00000000E+00
  0.00000000E+00  0.00000000E+00  0.00000000E+00  0.00000000E+00  0.00000000E+00
 -1.00610473E-01  5.49757574E-02  0.00000000E+00  0.00000000E+00 -2.27979592E-01
  1.40275122E+00  0.00000000E+00  0.00000000E+00 -5.30889438E-01 -7.23743987E-02
 -5.60511306E-02 -4.38420710E-02  0.00000000E+00  0.00000000E+00  0.00000000E+00
  0.00000000E+00  0.00000000E+00  1.41041076E-02  0.00000000E+00  0.00000000E+00
  9.62744855E-03  0.00000000E+00  0.00000000E+00  1.68886903E-04  0.00000000E+00
 -5.86002273E-02 -1.03558743E+00 -5.86002273E-02 -1.03558743E+00  0.00000000E+00
  0.00000000E+00  0.00000000E+00 -3.44330484E-01  0.00000000E+00  0.00000000E+00
  0.00000000E+00 -8.67796223E-01  0.00000000E+00  0.00000000E+00  0.00000000E+00
  0.00000000E+00  0.00000000E+00  0.00000000E+00  2.19310613E-02  0.00000000E+00
  2.07267852E-02  0.00000000E+00  0.00000000E+00  1.66508033E-02  0.00000000E+00
  0.00000000E+00  1.22700822E-02  0.00000000E+00  0.00000000E+00  5.37879973E-02
  1.39129065E+00 -5.37879973E-02 -1.39129065E+00  0.00000000E+00  0.00000000E+00
  0.00000000E+00  6.62605163E-02  0.00000000E+00  0.00000000E+00  0.00000000E+00
  8.21048439E-01  0.00000000E+00  0.00000000E+00  0.00000000E+00  0.00000000E+00
  0.00000000E+00  0.00000000E+00  1.93649502E-01  0.00000000E+00 -6.72847650E-02
  0.00000000E+00  0.00000000E+00 -3.75680988E-02  0.00000000E+00  0.00000000E+00
 -4.33480163E-02  0.00000000E+00  0.00000000E+00 -8.17248931E-01  3.82181620E-01
  8.17248931E-01 -3.82181620E-01  0.00000000E+00  0.00000000E+00 -7.45975846E-01
  0.00000000E+00  0.00000000E+00  0.00000000E+00  1.12828179E+00  0.00000000E+00
  0.00000000E+00  0.00000000E+00  0.00000000E+00  0.00000000E+00  0.00000000E+00
 -7.57813462E-03  0.00000000E+00 -2.07121318E-01  0.00000000E+00  0.00000000E+00
 -9.37798134E-02  0.00000000E+00  0.00000000E+00 -9.30534791E-02  0.00000000E+00
  0.00000000E+00  0.00000000E+00  0.00000000E+00  0.00000000E+00  0.00000000E+00
  0.00000000E+00 -4.67580437E-03 -5.81487310E-01  0.00000000E+00  0.00000000E+00
 -6.45778605E-01  9.63741125E-01  0.00000000E+00  0.00000000E+00  1.06550340E+00
 -2.19461749E-01 -1.83538891E-01 -2.16553290E-01  0.00000000E+00  0.00000000E+00
  0.00000000E+00  0.00000000E+00  0.00000000E+00 -1.90717547E-01  0.00000000E+00
  0.00000000E+00 -8.52722194E-02  0.00000000E+00  0.00000000E+00 -8.49045806E-02
  0.00000000E+00  1.30469585E-01 -4.28857870E-02  1.30469585E-01 -4.28857870E-02
  3.55291370E-02 -5.24315882E-01  0.00000000E+00  0.00000000E+00  3.73935564E-01
  7.94670008E-01  0.00000000E+00  0.00000000E+00 -1.13475055E-02 -2.88277097E-01
  5.72374041E-02 -1.34359028E-01  0.00000000E+00  0.00000000E+00  0.00000000E+00
  0.00000000E+00  0.00000000E+00  4.87390867E-02  0.00000000E+00  0.00000000E+00
  2.23844887E-02  0.00000000E+00  0.00000000E+00  1.49991004E-02  0.00000000E+00
  8.31353653E-01 -6.24047098E-01  8.31353653E-01 -6.24047098E-01  0.00000000E+00
  0.00000000E+00  0.00000000E+00 -8.14257229E-01  0.00000000E+00  0.00000000E+00
  0.00000000E+00  1.60898712E+00  0.00000000E+00  0.00000000E+00  0.00000000E+00
  0.00000000E+00  0.00000000E+00  0.00000000E+00 -4.27813042E-02  0.00000000E+00
 -2.34578663E-01  0.00000000E+00  0.00000000E+00 -1.06171923E-01  0.00000000E+00
  0.00000000E+00 -1.01310140E-01  0.00000000E+00  0.00000000E+00  1.92150726E-01
 -9.99216372E-01 -1.92150726E-01  9.99216372E-01 -9.48301190E-02 -1.50208703E+00
  0.00000000E+00  0.00000000E+00  2.52009330E-01  3.76371272E+00  0.00000000E+00
  0.00000000E+00 -1.11520404E+00 -3.11676753E-01 -6.87077135E-01 -4.64024101E-01
  0.00000000E+00  0.00000000E+00  0.00000000E+00  0.00000000E+00  0.00000000E+00
  1.09969089E-01  0.00000000E+00  0.00000000E+00  4.74239612E-02  0.00000000E+00
  0.00000000E+00  5.84111252E-02  0.00000000E+00 -3.60046188E-01 -7.72855215E-01
 -3.60046188E-01 -7.72855215E-01  7.01558722E-03  6.95522094E-02  0.00000000E+00
  0.00000000E+00  3.50397848E-02 -2.05390207E-01  0.00000000E+00  0.00000000E+00
  1.20811423E-01 -3.50253728E-01 -5.96291256E-01  1.00605852E+00  0.00000000E+00
  0.00000000E+00  0.00000000E+00  0.00000000E+00  0.00000000E+00 -5.59267034E-02
  0.00000000E+00  0.00000000E+00  6.17813357E-03  0.00000000E+00  0.00000000E+00
  9.70246064E-03  0.00000000E+00  7.28437869E-02  3.02037290E-02  7.28437869E-02
  3.02037290E-02  0.00000000E+00  0.00000000E+00  0.00000000E+00  0.00000000E+00
  0.00000000E+00  0.00000000E+00  0.00000000E+00  0.00000000E+00  0.00000000E+00
  0.00000000E+00  0.00000000E+00  0.00000000E+00  9.99529783E-01  0.00000000E+00
  0.00000000E+00  0.00000000E+00  0.00000000E+00  0.00000000E+00  0.00000000E+00
  0.00000000E+00  0.00000000E+00  0.00000000E+00  0.00000000E+00  0.00000000E+00
 -3.06628914E-02  0.00000000E+00  0.00000000E+00  0.00000000E+00  0.00000000E+00
  0.00000000E+00  0.00000000E+00  3.40140261E-02  0.00000000E+00  0.00000000E+00
  0.00000000E+00  3.20140111E-02  0.00000000E+00  0.00000000E+00  0.00000000E+00
  0.00000000E+00  0.00000000E+00  0.00000000E+00  9.99010632E-01  0.00000000E+00
  3.03210478E-03  0.00000000E+00  0.00000000E+00 -1.02677740E-02  0.00000000E+00
  0.00000000E+00 -3.44344107E-02  0.00000000E+00  0.00000000E+00  0.00000000E+00
  0.00000000E+00  0.00000000E+00  0.00000000E+00  0.00000000E+00 -5.65668368E-02
 -4.80459761E-01  0.00000000E+00  0.00000000E+00 -1.41173877E-02  1.51435150E+00
  0.00000000E+00  0.00000000E+00 -7.24825130E-01 -1.12969665E+00  7.26572794E-01
  4.87667507E-02  0.00000000E+00  0.00000000E+00  0.00000000E+00  0.00000000E+00
  0.00000000E+00  2.77936190E-02  0.00000000E+00  0.00000000E+00  1.20151524E-02
  0.00000000E+00  0.00000000E+00  7.42842450E-02  0.00000000E+00 -7.95234056E-01
 -1.37500969E-01 -7.95234056E-01 -1.37500969E-01  0.00000000E+00  0.00000000E+00
  0.00000000E+00 -5.48252120E-02  0.00000000E+00  0.00000000E+00  0.00000000E+00
 -8.38127425E-01  0.00000000E+00  0.00000000E+00  0.00000000E+00  0.00000000E+00
  0.00000000E+00  0.00000000E+00  1.25953875E+00  0.00000000E+00  9.18017800E-02
  0.00000000E+00  0.00000000E+00 -1.89178015E-02  0.00000000E+00  0.00000000E+00
  4.95127314E-02  0.00000000E+00  0.00000000E+00  9.04414824E-01 -3.86689790E-02
 -9.04414824E-01  3.86689790E-02 -4.62392670E-01  3.33651557E-01  0.00000000E+00
  0.00000000E+00  1.75499521E-01  3.57422331E+00  0.00000000E+00  0.00000000E+00
 -3.02334144E-01 -1.55527586E+00 -1.50705291E+00 -1.53008318E+00  0.00000000E+00
  0.00000000E+00  0.00000000E+00  0.00000000E+00  0.00000000E+00 -5.30852712E-02
  0.00000000E+00  0.00000000E+00 -2.06025753E-02  0.00000000E+00  0.00000000E+00
 -2.97403901E-02  0.00000000E+00  1.11199421E-01 -5.26781879E-01  1.11199421E-01
 -5.26781879E-01  0.00000000E+00  0.00000000E+00  1.42117466E+00  0.00000000E+00
  0.00000000E+00  0.00000000E+00  4.89619422E-01  0.00000000E+00  0.00000000E+00
  0.00000000E+00  0.00000000E+00  0.00000000E+00  0.00000000E+00 -1.37871917E-02
  0.00000000E+00 -1.21574144E+00  0.00000000E+00  0.00000000E+00 -6.45097620E-01
  0.00000000E+00  0.00000000E+00 -5.96549648E-01  0.00000000E+00  0.00000000E+00
  0.00000000E+00  0.00000000E+00  0.00000000E+00  0.00000000E+00  0.00000000E+00
  6.87823862E-02  7.55843522E-02  0.00000000E+00  0.00000000E+00  1.40434922E+00
 -8.10988240E-01  0.00000000E+00  0.00000000E+00  6.09578219E-01  2.19195317E-01
  2.52122183E-01  2.15194361E-01  0.00000000E+00  0.00000000E+00  0.00000000E+00
  0.00000000E+00  0.00000000E+00 -1.37261386E+00  0.00000000E+00  0.00000000E+00
 -5.85690916E-01  0.00000000E+00  0.00000000E+00 -4.96923261E-01  0.00000000E+00
 -9.61960318E-02  2.49451717E-01 -9.61960318E-02  2.49451717E-01  0.00000000E+00
  0.00000000E+00  0.00000000E+00 -1.36994859E+00  0.00000000E+00  0.00000000E+00
  0.00000000E+00 -6.95700636E-01  0.00000000E+00  0.00000000E+00  0.00000000E+00
  0.00000000E+00  0.00000000E+00  0.00000000E+00 -4.83954847E-02  0.00000000E+00
  1.42857977E+00  0.00000000E+00  0.00000000E+00  6.65173222E-01  0.00000000E+00
  0.00000000E+00  3.48938519E-01  0.00000000E+00  0.00000000E+00 -1.45310851E-01
  3.56026774E-01  1.45310851E-01 -3.56026774E-01  0.00000000E+00  0.00000000E+00
  0.00000000E+00 -2.08443682E-01  0.00000000E+00  0.00000000E+00  0.00000000E+00
 -7.87269248E-02  0.00000000E+00  0.00000000E+00  0.00000000E+00  0.00000000E+00
  0.00000000E+00  0.00000000E+00 -1.45933095E-02  0.00000000E+00 -7.67775144E-01
  0.00000000E+00  0.00000000E+00  5.91688960E-01  0.00000000E+00  0.00000000E+00
  8.97622601E-01  0.00000000E+00  0.00000000E+00 -6.14727720E-02  6.46937909E-02
  6.14727720E-02 -6.46937909E-02  0.00000000E+00  0.00000000E+00  0.00000000E+00
  0.00000000E+00  0.00000000E+00  0.00000000E+00  0.00000000E+00  0.00000000E+00
  0.00000000E+00  0.00000000E+00  0.00000000E+00  0.00000000E+00  3.06628914E-02
  0.00000000E+00  0.00000000E+00  0.00000000E+00  0.00000000E+00  0.00000000E+00
  0.00000000E+00  0.00000000E+00  0.00000000E+00  0.00000000E+00  0.00000000E+00
  0.00000000E+00  9.99529783E-01  0.00000000E+00  0.00000000E+00  0.00000000E+00
  0.00000000E+00  0.00000000E+00  0.00000000E+00  8.62125605E-02  0.00000000E+00
  0.00000000E+00  0.00000000E+00  2.86134671E-02  0.00000000E+00  0.00000000E+00
  0.00000000E+00  0.00000000E+00  0.00000000E+00  0.00000000E+00  1.21158063E-03
  0.00000000E+00 -6.88896251E-01  0.00000000E+00  0.00000000E+00  1.05606645E+00
  0.00000000E+00  0.00000000E+00 -3.17131612E-01  0.00000000E+00  0.00000000E+00
  0.00000000E+00  0.00000000E+00  0.00000000E+00  0.00000000E+00  0.00000000E+00
 -1.07542202E-03  1.20064281E-02  0.00000000E+00  0.00000000E+00 -5.89569854E-02
 -1.49139989E-02  0.00000000E+00  0.00000000E+00  2.51646372E-03  2.65528489E-02
 -1.12061067E-02 -3.68084311E-02  0.00000000E+00  0.00000000E+00  0.00000000E+00
  0.00000000E+00  0.00000000E+00 -8.76238844E-01  0.00000000E+00  0.00000000E+00
  9.60923607E-01  0.00000000E+00  0.00000000E+00  3.40339033E-01  0.00000000E+00
  4.10027417E-02 -9.67895409E-03  4.10027417E-02 -9.67895409E-03  0.00000000E+00
  0.00000000E+00  5.08076489E-02  0.00000000E+00  0.00000000E+00  0.00000000E+00
  1.68106737E-02  0.00000000E+00  0.00000000E+00  0.00000000E+00  0.00000000E+00
  0.00000000E+00  0.00000000E+00  2.49821526E-02  0.00000000E+00 -8.41204776E-01
  0.00000000E+00  0.00000000E+00 -1.76901705E-02  0.00000000E+00  0.00000000E+00
  1.03652358E+00  0.00000000E+00  0.00000000E+00  0.00000000E+00  0.00000000E+00
  0.00000000E+00  0.00000000E+00  0.00000000E+00  0.00000000E+00  0.00000000E+00
  0.00000000E+00  2.40151372E-01  0.00000000E+00  0.00000000E+00  0.00000000E+00
 -1.41054563E-01  0.00000000E+00  0.00000000E+00  0.00000000E+00  0.00000000E+00
  0.00000000E+00  0.00000000E+00  2.66621226E-01  0.00000000E+00 -4.33412957E-01
  0.00000000E+00  0.00000000E+00  8.92256087E-01  0.00000000E+00  0.00000000E+00
 -8.40132316E-01  0.00000000E+00  0.00000000E+00  3.97964935E-01 -1.44364178E-01
 -3.97964935E-01  1.44364178E-01  1.05232333E-02  1.90048020E-01  0.00000000E+00
  0.00000000E+00 -1.24764644E-01 -4.98236944E-01  0.00000000E+00  0.00000000E+00
  3.02587174E-01  2.07295973E-01 -1.92860254E-01 -5.71799953E-02  0.00000000E+00
  0.00000000E+00  0.00000000E+00  0.00000000E+00  0.00000000E+00 -2.78263410E-01
  0.00000000E+00  0.00000000E+00 -5.51417271E-01  0.00000000E+00  0.00000000E+00
  1.16296828E+00  0.00000000E+00  5.10109683E-01 -3.31699785E-02  5.10109683E-01
 -3.31699785E-02
Orthonormal basis                          R   N=         841
  2.93984859E-02  1.48057384E-01  0.00000000E+00  0.00000000E+00 -5.47581348E-02
  1.92173020E-01  0.00000000E+00  0.00000000E+00 -7.63230336E-02  1.26763507E-01
  1.44307571E-01  1.37574225E-01  0.00000000E+00  0.00000000E+00  0.00000000E+00
  0.00000000E+00  0.00000000E+00 -5.70223146E-02  0.00000000E+00  0.00000000E+00
 -4.34354964E-02  0.00000000E+00  0.00000000E+00 -5.24319275E-02  0.00000000E+00
  1.20436194E-01  1.57557263E-01  1.20436194E-01  1.57557263E-01  2.38140110E-02
  1.03377390E-01  0.00000000E+00  0.00000000E+00  2.57515555E-01  1.13653920E-01
  0.00000000E+00  0.00000000E+00  2.31058362E-01  8.87254337E-02  8.03070886E-02
  8.35380177E-02  0.00000000E+00  0.00000000E+00  0.00000000E+00  0.00000000E+00
  0.00000000E+00  2.50382160E-01  0.00000000E+00  0.00000000E+00  2.05728873E-01
  0.00000000E+00  0.00000000E+00  2.11103306E-01  0.00000000E+00 -4.63904436E-02
  1.59190939E-02 -4.63904436E-02  1.59190939E-02  6.87407658E-01  3.47939777E-01
  0.00000000E+00  0.00000000E+00 -1.89360311E-01  8.11036621E-02  0.00000000E+00
  0.00000000E+00  1.53209798E-01  1.91208670E-01 -9.73574130E-02  1.33931629E-02
  0.00000000E+00  0.00000000E+00  0.00000000E+00  0.00000000E+00  0.00000000E+00
 -1.20492986E-01  0.00000000E+00  0.00000000E+00 -1.79113203E-01  0.00000000E+00
  0.00000000E+00 -2.42629216E-02  0.00000000E+00 -2.15105859E-01 -1.97155264E-01
 -2.15105859E-01 -1.97155264E-01  6.73248450E-01 -1.79288946E-01  0.00000000E+00
  0.00000000E+00  2.22118067E-01 -9.79374900E-02  0.00000000E+00  0.00000000E+00
 -2.29410012E-01 -4.41513452E-01  1.87224446E-02 -1.57914359E-01  0.00000000E+00
  0.00000000E+00  0.00000000E+00  0.00000000E+00  0.00000000E+00  1.25571173E-01
  0.00000000E+00  0.00000000E+00  2.35567345E-01  0.00000000E+00  0.00000000E+00
 -1.64736074E-02  0.00000000E+00  2.34071817E-01  1.75698422E-01  2.34071817E-01
  1.75698422E-01  7.89291417E-02 -2.16024438E-01  0.00000000E+00  0.00000000E+00
  1.46237348E-01  3.71825207E-03  0.00000000E+00  0.00000000E+00 -3.65314640E-01
  4.25845550E-01 -5.22900879E-01 -1.58775573E-01  0.00000000E+00  0.00000000E+00
  0.00000000E+00  0.00000000E+00  0.00000000E+00 -2.24089564E-02  0.00000000E+00
  0.00000000E+00 -2.89179942E-01  0.00000000E+00  0.00000000E+00  5.86108380E-01
  0.00000000E+00 -1.59045018E-01  3.41453628E-01 -1.59045018E-01  3.41453628E-01
 -6.41509104E-16  2.30371087E-15  0.00000000E+00  0.00000000E+00 -5.67563311E-15
 -6.03032154E-16  0.00000000E+00  0.00000000E+00 -1.78080558E-15 -3.80387184E-01
 -6.10730370E-01  9.91117554E-01  0.00000000E+00  0.00000000E+00  0.00000000E+00
  0.00000000E+00  0.00000000E+00 -1.57891600E-14  0.00000000E+00  0.00000000E+00
  1.24117541E-14  0.00000000E+00  0.00000000E+00  1.40997591E-14  0.00000000E+00
 -1.06818575E-15 -8.38403930E-16 -1.06818575E-15 -8.38403930E-16  1.38112065E-02
 -3.81212086E-02  0.00000000E+00  0.00000000E+00  4.26657298E-02  1.06982470E-03
  0.00000000E+00  0.00000000E+00 -9.04332556E-02  5.50027071E-01 -4.93751422E-01
 -9.31531676E-02  0.00000000E+00  0.00000000E+00  0.00000000E+00  0.00000000E+00
  0.00000000E+00 -1.96332445E-03  0.00000000E+00  0.00000000E+00  7.15990122E-01
  0.00000000E+00  0.00000000E+00 -6.47383333E-01  0.00000000E+00 -5.88782554E-03
  4.21209912E-02 -5.88782554E-03  4.21209912E-02  3.39885555E-02 -1.06274310E-01
  0.00000000E+00  0.00000000E+00  2.82883393E-01  9.58818043E-03  0.00000000E+00
  0.00000000E+00  1.13486404E-01  1.25097719E-01 -1.35407584E-01 -3.54266302E-02
  0.00000000E+00  0.00000000E+00  0.00000000E+00  0.00000000E+00  0.00000000E+00
  8.32252131E-01  0.00000000E+00  0.00000000E+00 -7.72122223E-01  0.00000000E+00
  0.00000000E+00 -6.27975997E-01  0.00000000E+00  5.89131643E-02  3.93630787E-02
  5.89131643E-02  3.93630787E-02  1.79455206E-01 -8.13469116E-01  0.00000000E+00
  0.00000000E+00 -5.99520129E-01  2.30139093E-01  0.00000000E+00  0.00000000E+00
  9.44729743E-01 -2.62719844E-02  1.41802829E-02 -1.34514489E-03  0.00000000E+00
  0.00000000E+00  0.00000000E+00  0.00000000E+00  0.00000000E+00 -8.55404082E-02
  0.00000000E+00  0.00000000E+00  2.58586311E-02  0.00000000E+00  0.00000000E+00
 -6.91140938E-02  0.00000000E+00 -9.57728712E-02  4.04213987E-01 -9.57728712E-02
  4.04213987E-01 -2.99846713E-01  9.67018415E-01  0.00000000E+00  0.00000000E+00
 -3.40177287E-01 -2.62726503E-02  0.00000000E+00  0.00000000E+00 -3.82318545E-03
 -8.00386134E-01 -2.37738369E-01 -4.53680462E-01  0.00000000E+00  0.00000000E+00
  0.00000000E+00  0.00000000E+00  0.00000000E+00  2.91047728E-01  0.00000000E+00
  0.00000000E+00  1.55902338E-01  0.00000000E+00  0.00000000E+00 -2.52987009E-01
  0.00000000E+00 -5.89500561E-01  6.41195783E-01 -5.89500561E-01  6.41195783E-01
  6.31495785E-04 -1.44492080E-01  0.00000000E+00  0.00000000E+00  1.49345607E+00
  1.78141437E-01  0.00000000E+00  0.00000000E+00  3.33114382E-01 -2.07540737E-01
  1.95357472E-01  4.07266569E-02  0.00000000E+00  0.00000000E+00  0.00000000E+00
  0.00000000E+00  0.00000000E+00 -1.25559543E+00  0.00000000E+00  0.00000000E+00
 -3.48709269E-01  0.00000000E+00  0.00000000E+00 -6.13936788E-01  0.00000000E+00
 -4.38917952E-01  2.33717707E-01 -4.38917952E-01  2.33717707E-01 -2.22005614E-01
  8.01424089E-01  0.00000000E+00  0.00000000E+00  2.13320057E-01  1.10632897E-02
  0.00000000E+00  0.00000000E+00  1.08710596E+00 -1.56557734E-01 -1.11093798E+00
 -7.44650439E-01  0.00000000E+00  0.00000000E+00  0.00000000E+00  0.00000000E+00