Energy water                                                            
SP        RHF                                                         6-31G(df)           
Number of atoms                            I                3
Info1-9                                    I   N=           9
          11          10           0           0           0         110
           1           1           2
Full Title                                 C   N=           1
Energy water
Route                                      C   N=           4
#P HF/6-31G(df) pop=full gfinput 5D 7F          
Charge                                     I                0
Multiplicity                               I                1
Number of electrons                        I               10
Number of alpha electrons                  I                5
Number of beta electrons                   I                5
Number of basis functions                  I               25
Number of independent functions            I               25
Number of point charges in /Mol/           I                0
Number of translation vectors              I                0
Atomic numbers                             I   N=           3
           8           1           1
Nuclear charges                            R   N=           3
  8.00000000E+00  1.00000000E+00  1.00000000E+00
Current cartesian coordinates              R   N=           9
  1.38394898E-17  1.38394898E-17  2.26016022E-01  2.09095447E-16  1.43961729E+00
 -9.04064083E-01 -4.96113637E-16 -1.43961729E+00 -9.04064083E-01
Number of symbols in /Mol/                 I                0
Force Field                                I                0
Atom Types                                 C   N=           3
                                    
Int Atom Types                             I   N=           3
           0           0           0
MM charges                                 R   N=           3
  0.00000000E+00  0.00000000E+00  0.00000000E+00
Integer atomic weights                     I   N=           3
          16           1           1
Real atomic weights                        R   N=           3
  1.59949146E+01  1.00782504E+00  1.00782504E+00
Atom fragment info                         I   N=           3
           0           0           0
Atom residue num                           I   N=           3
           0           0           0
Nuclear spins                              I   N=           3
           0           1           1
Nuclear ZEff                               R   N=           3
 -5.60000000E+00 -1.00000000E+00 -1.00000000E+00
Nuclear ZNuc                               R   N=           3
  8.00000000E+00  1.00000000E+00  1.00000000E+00
Nuclear QMom                               R   N=           3
  0.00000000E+00  0.00000000E+00  0.00000000E+00
Nuclear GFac                               R   N=           3
  0.00000000E+00  2.79284600E+00  2.79284600E+00
MicOpt                                     I   N=           3
          -1          -1          -1
Number of residues                         I                0
Number of secondary structures             I                0
SymInf integers                            I   N=          26
           2           4           1           1           1          -1
          -1           1          -1           1           1           1
          -1           1           0           0           0           0
           0           0           0           0           0           0
           0           0
RotTr to input orientation                 R   N=          12
  1.00000000E+00 -1.83697020E-16 -6.12323400E-17  1.83697020E-16  1.00000000E+00
 -6.12323400E-17  6.12323400E-17  6.12323400E-17  1.00000000E+00  0.00000000E+00
  0.00000000E+00  7.55890461E-10
Number of contracted shells                I                9
Number of primitive shells                 I               20
Pure/Cartesian d shells                    I                0
Pure/Cartesian f shells                    I                0
Highest angular momentum                   I                3
Largest degree of contraction              I                6
Shell types                                I   N=           9
           0          -1          -1          -2          -3           0
           0           0           0
Number of primitives per shell             I   N=           9
           6           3           1           1           1           3
           1           3           1
Shell to atom map                          I   N=           9
           1           1           1           1           1           2
           2           3           3
Primitive exponents                        R   N=          20
  5.48467166E+03  8.25234946E+02  1.88046958E+02  5.29645000E+01  1.68975704E+01
  5.79963534E+00  1.55396162E+01  3.59993359E+00  1.01376175E+00  2.70005823E-01
  8.00000000E-01  1.40000000E+00  1.87311370E+01  2.82539436E+00  6.40121692E-01
  1.61277759E-01  1.87311370E+01  2.82539436E+00  6.40121692E-01  1.61277759E-01
Contraction coefficients                   R   N=          20
  1.83107443E-03  1.39501722E-02  6.84450781E-02  2.32714336E-01  4.70192898E-01
  3.58520853E-01 -1.10777550E-01 -1.48026263E-01  1.13076702E+00  1.00000000E+00
  1.00000000E+00  1.00000000E+00  3.34946043E-02  2.34726953E-01  8.13757326E-01
  1.00000000E+00  3.34946043E-02  2.34726953E-01  8.13757326E-01  1.00000000E+00
P(S=P) Contraction coefficients            R   N=          20
  0.00000000E+00  0.00000000E+00  0.00000000E+00  0.00000000E+00  0.00000000E+00
  0.00000000E+00  7.08742682E-02  3.39752839E-01  7.27158577E-01  1.00000000E+00
  0.00000000E+00  0.00000000E+00  0.00000000E+00  0.00000000E+00  0.00000000E+00
  0.00000000E+00  0.00000000E+00  0.00000000E+00  0.00000000E+00  0.00000000E+00
Coordinates of each shell                  R   N=          27
  6.96465636E-34 -1.39293127E-33  2.26016021E-01  6.96465636E-34 -1.39293127E-33
  2.26016021E-01  6.96465636E-34 -1.39293127E-33  2.26016021E-01  6.96465636E-34
 -1.39293127E-33  2.26016021E-01  6.96465636E-34 -1.39293127E-33  2.26016021E-01
  0.00000000E+00  1.43961729E+00 -9.04064084E-01  0.00000000E+00  1.43961729E+00
 -9.04064084E-01 -1.76302271E-16 -1.43961729E+00 -9.04064084E-01 -1.76302271E-16
 -1.43961729E+00 -9.04064084E-01
Num ILSW                                   I              100
ILSW                                       I   N=         100
           0           0           0           0           2           0
           0           0           0           0           0          -1
           5           0           0           0           0           0
           0           0           0           0           0           0
           1           0           0           0           0           0
           0           0      100000           0          -1           0
           0           0           0           0           0           0
           0           0           0           1           0           0
           0 -2000000000           1           0           0           0
           0           0           4          52           0           0
           0           0           0           0           0           0
           0           0           0           3           0           1
           0           0           0           0           0           0
           0           0           0           0           0           0
           0           0           0           0           0           0
           0           0           0           0           0           0
           0           0           0           0
Num RLSW                                   I               52
RLSW                                       R   N=          52
  1.00000000E+00  1.00000000E+00  1.00000000E+00  1.00000000E+00  1.00000000E+00
  0.00000000E+00  0.00000000E+00  1.00000000E+00  0.00000000E+00  0.00000000E+00
  0.00000000E+00  0.00000000E+00  1.00000000E+00  0.00000000E+00  0.00000000E+00
  0.00000000E+00  0.00000000E+00  1.00000000E+00  0.00000000E+00  0.00000000E+00
  0.00000000E+00  0.00000000E+00  1.00000000E+00  0.00000000E+00  0.00000000E+00
  0.00000000E+00  0.00000000E+00  1.00000000E+00  0.00000000E+00  0.00000000E+00
  0.00000000E+00  0.00000000E+00  1.00000000E+00  0.00000000E+00  0.00000000E+00
  0.00000000E+00  0.00000000E+00  0.00000000E+00  1.00000000E+00  1.00000000E+00
  0.00000000E+00  1.00000000E+00  0.00000000E+00  0.00000000E+00  0.00000000E+00
  0.00000000E+00  0.00000000E+00  0.00000000E+00  0.00000000E+00  0.00000000E+00
  0.00000000E+00  0.00000000E+00
MxBond                                     I                2
NBond                                      I   N=           3
           2           1           1
IBond                                      I   N=           6
           2           3           1           0           1           0
RBond                                      R   N=           6
  1.00000000E+00  1.00000000E+00  1.00000000E+00  0.00000000E+00  1.00000000E+00
  0.00000000E+00
Virial Ratio                               R      2.000983562524265E+00
SCF Energy                                 R     -7.601185160444780E+01
Total Energy                               R     -7.601185160444780E+01
RMS Density                                R      3.129725180179340E-09
Job Status                                 I                1
Nuclear derivative order                   I                0
External E-field                           R   N=          35
  0.00000000E+00  0.00000000E+00  0.00000000E+00  0.00000000E+00  0.00000000E+00
  0.00000000E+00  0.00000000E+00  0.00000000E+00  0.00000000E+00  0.00000000E+00
  0.00000000E+00  0.00000000E+00  0.00000000E+00  0.00000000E+00  0.00000000E+00
  0.00000000E+00  0.00000000E+00  0.00000000E+00  0.00000000E+00  0.00000000E+00
  0.00000000E+00  0.00000000E+00  0.00000000E+00  0.00000000E+00  0.00000000E+00
  0.00000000E+00  0.00000000E+00  0.00000000E+00  0.00000000E+00  0.00000000E+00
  0.00000000E+00  0.00000000E+00  0.00000000E+00  0.00000000E+00  0.00000000E+00
IOpCl                                      I                0
IROHF                                      I                0
Alpha Orbital Energies                     R   N=          25
 -2.05570123E+01 -1.33608356E+00 -6.97887395E-01 -5.69968765E-01 -4.99110136E-01
  2.12210032E-01  3.01844487E-01  1.01523167E+00  1.15570676E+00  1.16657800E+00
  1.20003383E+00  1.37847086E+00  1.65933622E+00  2.01939913E+00  2.03341396E+00
  2.06561840E+00  2.61070160E+00  2.92223692E+00  5.36652821E+00  5.40847412E+00
  5.42216696E+00  5.45892033E+00  5.46815553E+00  5.65306270E+00  5.84725194E+00
Alpha MO coefficients                      R   N=         625
  9.95797930E-01  2.19102240E-02  0.00000000E+00  0.00000000E+00 -1.62313017E-03
 -8.02281487E-03  0.00000000E+00  0.00000000E+00  1.80934606E-03 -2.85057332E-05
  0.00000000E+00  0.00000000E+00  2.78623899E-04  0.00000000E+00  3.02449759E-05
  0.00000000E+00  0.00000000E+00  5.72300603E-05  0.00000000E+00  0.00000000E+00
  0.00000000E+00  2.67582323E-04  1.89508916E-03  2.67582323E-04  1.89508916E-03
 -2.14295773E-01  4.67725613E-01  0.00000000E+00  0.00000000E+00 -8.98794553E-02
  5.00527703E-01  0.00000000E+00  0.00000000E+00 -6.02763037E-02  6.15579264E-03
  0.00000000E+00  0.00000000E+00 -1.71804876E-02  0.00000000E+00  3.35721615E-03
  0.00000000E+00  0.00000000E+00  8.88641994E-03  0.00000000E+00  0.00000000E+00
  0.00000000E+00  1.24618177E-01 -7.56619405E-03  1.24618177E-01 -7.56619405E-03
  0.00000000E+00  0.00000000E+00  0.00000000E+00  5.05439964E-01  0.00000000E+00
  0.00000000E+00  0.00000000E+00  3.11622602E-01  0.00000000E+00  0.00000000E+00
  0.00000000E+00 -5.26346507E-02  0.00000000E+00  0.00000000E+00  0.00000000E+00
  0.00000000E+00  2.95498010E-03  0.00000000E+00  0.00000000E+00  0.00000000E+00
 -8.37220317E-03  2.26968406E-01  1.15078482E-01 -2.26968406E-01 -1.15078482E-01
 -7.00282378E-02  1.72428445E-01  0.00000000E+00  0.00000000E+00  5.52471227E-01
  2.79115852E-01  0.00000000E+00  0.00000000E+00  4.09069533E-01 -3.47574770E-02
  0.00000000E+00  0.00000000E+00  8.42149962E-03  0.00000000E+00  1.36512955E-03
  0.00000000E+00  0.00000000E+00 -6.81849745E-03  0.00000000E+00  0.00000000E+00
  0.00000000E+00 -1.40058513E-01 -7.99382303E-02 -1.40058513E-01 -7.99382303E-02
  0.00000000E+00  0.00000000E+00  6.39698321E-01  0.00000000E+00  0.00000000E+00
  0.00000000E+00  5.11340210E-01  0.00000000E+00  0.00000000E+00  0.00000000E+00
 -3.36394200E-02  0.00000000E+00  0.00000000E+00  0.00000000E+00  0.00000000E+00
  3.49870382E-03  0.00000000E+00  0.00000000E+00  0.00000000E+00 -8.66483965E-03
  0.00000000E+00  0.00000000E+00  0.00000000E+00  0.00000000E+00  0.00000000E+00
 -8.57097255E-02  1.01317254E-01  0.00000000E+00  0.00000000E+00 -2.22894613E-01
  1.17777584E+00  0.00000000E+00  0.00000000E+00 -4.93431897E-01  1.35291610E-02
  0.00000000E+00  0.00000000E+00 -8.81647199E-03  0.00000000E+00  1.30609428E-03
  0.00000000E+00  0.00000000E+00  5.58421492E-03  0.00000000E+00  0.00000000E+00
  0.00000000E+00 -5.92437187E-02 -9.90748496E-01 -5.92437187E-02 -9.90748496E-01
  0.00000000E+00  0.00000000E+00  0.00000000E+00 -3.32565785E-01  0.00000000E+00
  0.00000000E+00  0.00000000E+00 -8.27808807E-01  0.00000000E+00  0.00000000E+00
  0.00000000E+00  2.21392729E-02  0.00000000E+00  0.00000000E+00  0.00000000E+00
  0.00000000E+00  7.98375929E-04  0.00000000E+00  0.00000000E+00  0.00000000E+00
  5.37562896E-03  5.37594461E-02  1.37320423E+00 -5.37594461E-02 -1.37320423E+00
  0.00000000E+00  0.00000000E+00  0.00000000E+00 -1.03728846E-01  0.00000000E+00
  0.00000000E+00  0.00000000E+00 -6.13604596E-01  0.00000000E+00  0.00000000E+00
  0.00000000E+00 -1.98667240E-01  0.00000000E+00  0.00000000E+00  0.00000000E+00
  0.00000000E+00  8.66880328E-03  0.00000000E+00  0.00000000E+00  0.00000000E+00
  5.58176178E-03  8.37433545E-01 -4.97883898E-01 -8.37433545E-01  4.97883898E-01
  6.36872990E-02 -3.11279739E-01  0.00000000E+00  0.00000000E+00  3.67951066E-01
  1.28582574E-01  0.00000000E+00  0.00000000E+00  1.63301742E-01 -1.40667682E-02
  0.00000000E+00  0.00000000E+00 -2.19364333E-01  0.00000000E+00  3.17891270E-03
  0.00000000E+00  0.00000000E+00  5.30034681E-03  0.00000000E+00  0.00000000E+00
  0.00000000E+00  8.70695627E-01 -4.92256862E-01  8.70695627E-01 -4.92256862E-01
  0.00000000E+00  0.00000000E+00 -9.62681437E-01  0.00000000E+00  0.00000000E+00
  0.00000000E+00  1.03607922E+00  0.00000000E+00  0.00000000E+00  0.00000000E+00
 -1.52199785E-02  0.00000000E+00  0.00000000E+00  0.00000000E+00  0.00000000E+00
  4.71064505E-04  0.00000000E+00  0.00000000E+00  0.00000000E+00 -4.13504464E-04
  0.00000000E+00  0.00000000E+00  0.00000000E+00  0.00000000E+00  0.00000000E+00
  4.65541696E-02 -3.73331050E-01  0.00000000E+00  0.00000000E+00 -9.01550300E-01
  1.06703202E-01  0.00000000E+00  0.00000000E+00  1.14298638E+00 -2.22779592E-02
  0.00000000E+00  0.00000000E+00 -4.81709816E-02  0.00000000E+00  6.36849470E-04
  0.00000000E+00  0.00000000E+00 -2.84624069E-04  0.00000000E+00  0.00000000E+00
  0.00000000E+00  1.73495746E-01  9.79622990E-02  1.73495746E-01  9.79622990E-02
  0.00000000E+00  0.00000000E+00  0.00000000E+00 -1.03474148E+00  0.00000000E+00
  0.00000000E+00  0.00000000E+00  1.53253162E+00  0.00000000E+00  0.00000000E+00
  0.00000000E+00 -1.03737327E-02  0.00000000E+00  0.00000000E+00  0.00000000E+00
  0.00000000E+00  1.86588708E-03  0.00000000E+00  0.00000000E+00  0.00000000E+00
 -3.27667833E-03  8.66050356E-02 -8.90608473E-01 -8.66050356E-02  8.90608473E-01
  6.49880560E-02 -1.59663509E+00  0.00000000E+00  0.00000000E+00  2.48446531E-01
  2.48191466E+00  0.00000000E+00  0.00000000E+00 -7.22512860E-01  4.14683946E-02
  0.00000000E+00  0.00000000E+00  2.55694791E-01  0.00000000E+00 -3.20010077E-03
  0.00000000E+00  0.00000000E+00 -5.14838783E-03  0.00000000E+00  0.00000000E+00
  0.00000000E+00 -2.09952555E-01 -6.28415968E-01 -2.09952555E-01 -6.28415968E-01
 -7.46371484E-04  1.12108991E-01  0.00000000E+00  0.00000000E+00 -8.09388211E-03
 -2.17759083E-01  0.00000000E+00  0.00000000E+00  1.32357169E-01  9.86545947E-01
  0.00000000E+00  0.00000000E+00  1.26297063E-01  0.00000000E+00 -2.98121351E-02
  0.00000000E+00  0.00000000E+00 -2.11938906E-03  0.00000000E+00  0.00000000E+00
  0.00000000E+00  7.60576311E-02  4.03922528E-02  7.60576311E-02  4.03922528E-02
  0.00000000E+00  0.00000000E+00  0.00000000E+00  0.00000000E+00  0.00000000E+00
  0.00000000E+00  0.00000000E+00  0.00000000E+00  0.00000000E+00  0.00000000E+00
  0.00000000E+00  0.00000000E+00  0.00000000E+00  9.99521756E-01  0.00000000E+00
  0.00000000E+00  0.00000000E+00  0.00000000E+00 -3.09234579E-02  0.00000000E+00
  0.00000000E+00  0.00000000E+00  0.00000000E+00  0.00000000E+00  0.00000000E+00
  0.00000000E+00  0.00000000E+00  6.95620289E-03  0.00000000E+00  0.00000000E+00
  0.00000000E+00  3.30782869E-02  0.00000000E+00  0.00000000E+00  0.00000000E+00
  9.98985046E-01  0.00000000E+00  0.00000000E+00  0.00000000E+00  0.00000000E+00
 -2.42954281E-02  0.00000000E+00  0.00000000E+00  0.00000000E+00  8.07767249E-03
  0.00000000E+00  0.00000000E+00  0.00000000E+00  0.00000000E+00  0.00000000E+00
 -1.82997317E-02 -5.64164219E-01  0.00000000E+00  0.00000000E+00  5.23763451E-02
  1.32727212E+00  0.00000000E+00  0.00000000E+00 -7.10576715E-01  1.59985221E-01
  0.00000000E+00  0.00000000E+00 -1.05984337E+00  0.00000000E+00 -2.78997149E-02
  0.00000000E+00  0.00000000E+00 -3.64495780E-02  0.00000000E+00  0.00000000E+00
  0.00000000E+00 -8.13300508E-01 -1.18231959E-01 -8.13300508E-01 -1.18231959E-01
  0.00000000E+00  0.00000000E+00  0.00000000E+00  3.01916587E-02  0.00000000E+00
  0.00000000E+00  0.00000000E+00 -8.24622786E-01  0.00000000E+00  0.00000000E+00
  0.00000000E+00  1.26222574E+00  0.00000000E+00  0.00000000E+00  0.00000000E+00
  0.00000000E+00  1.75420263E-02  0.00000000E+00  0.00000000E+00  0.00000000E+00
 -4.23849802E-02  9.14704630E-01 -4.64591284E-02 -9.14704630E-01  4.64591284E-02
  0.00000000E+00  0.00000000E+00  0.00000000E+00  4.61268349E-03  0.00000000E+00
  0.00000000E+00  0.00000000E+00  3.94437509E-02  0.00000000E+00  0.00000000E+00
  0.00000000E+00 -1.34359387E-02  0.00000000E+00  0.00000000E+00  0.00000000E+00
  0.00000000E+00  7.75771900E-01  0.00000000E+00  0.00000000E+00  0.00000000E+00
  6.32085060E-01 -4.74488899E-02  9.13869585E-03  4.74488899E-02 -9.13869585E-03
  0.00000000E+00  0.00000000E+00  0.00000000E+00  0.00000000E+00  0.00000000E+00
  0.00000000E+00  0.00000000E+00  0.00000000E+00  0.00000000E+00  0.00000000E+00
  0.00000000E+00  0.00000000E+00  0.00000000E+00  3.09234579E-02  0.00000000E+00
  0.00000000E+00  0.00000000E+00  0.00000000E+00  9.99521756E-01  0.00000000E+00
  0.00000000E+00  0.00000000E+00  0.00000000E+00  0.00000000E+00  0.00000000E+00
  0.00000000E+00  0.00000000E+00  4.57142577E-03  0.00000000E+00  0.00000000E+00
  0.00000000E+00  4.12157875E-03  0.00000000E+00  0.00000000E+00  0.00000000E+00
 -2.44501034E-03  0.00000000E+00  0.00000000E+00  0.00000000E+00  0.00000000E+00
  2.33384073E-01  0.00000000E+00  0.00000000E+00  0.00000000E+00  9.72352360E-01
  0.00000000E+00  0.00000000E+00  0.00000000E+00  0.00000000E+00  0.00000000E+00
 -1.15178929E-03 -1.68084699E-02  0.00000000E+00  0.00000000E+00 -8.65356047E-04
  4.64575140E-02  0.00000000E+00  0.00000000E+00 -3.06786637E-02  3.06669421E-02
  0.00000000E+00  0.00000000E+00 -2.22081881E-02  0.00000000E+00  9.35920597E-01
  0.00000000E+00  0.00000000E+00 -3.51705686E-01  0.00000000E+00  0.00000000E+00
  0.00000000E+00 -3.94540257E-02 -2.99012449E-04 -3.94540257E-02 -2.99012449E-04
  0.00000000E+00  0.00000000E+00 -2.75958633E-03  0.00000000E+00  0.00000000E+00
  0.00000000E+00 -2.50530940E-03  0.00000000E+00  0.00000000E+00  0.00000000E+00
  2.56834797E-02  0.00000000E+00  0.00000000E+00  0.00000000E+00  0.00000000E+00
  9.72074660E-01  0.00000000E+00  0.00000000E+00  0.00000000E+00 -2.33217470E-01
  0.00000000E+00  0.00000000E+00  0.00000000E+00  0.00000000E+00  0.00000000E+00
  0.00000000E+00  0.00000000E+00  0.00000000E+00 -3.02057706E-03  0.00000000E+00
  0.00000000E+00  0.00000000E+00 -2.68741348E-01  0.00000000E+00  0.00000000E+00
  0.00000000E+00  2.55351802E-01  0.00000000E+00  0.00000000E+00  0.00000000E+00
  0.00000000E+00 -6.59550412E-01  0.00000000E+00  0.00000000E+00  0.00000000E+00
  7.92114493E-01  3.65758794E-01 -7.50874372E-02 -3.65758794E-01  7.50874372E-02
 -1.47824642E-02 -1.97454775E-01  0.00000000E+00  0.00000000E+00  1.23445466E-02
  5.54869995E-01  0.00000000E+00  0.00000000E+00 -3.53641909E-01  4.36051754E-02
  0.00000000E+00  0.00000000E+00 -2.28998436E-01  0.00000000E+00  3.81676334E-01
  0.00000000E+00  0.00000000E+00  9.93352974E-01  0.00000000E+00  0.00000000E+00
  0.00000000E+00 -5.01650663E-01  1.32914793E-02 -5.01650663E-01  1.32914793E-02
Orthonormal basis                          R   N=         625
  5.29007208E-02  1.89066742E-01  0.00000000E+00  0.00000000E+00 -6.71343438E-02
  2.51044208E-01  0.00000000E+00  0.00000000E+00 -1.21591564E-01  4.96589312E-03
  0.00000000E+00  0.00000000E+00 -3.70090379E-02  0.00000000E+00  8.66371963E-03
  0.00000000E+00  0.00000000E+00  1.89831324E-02  0.00000000E+00  0.00000000E+00
  0.00000000E+00  1.76037249E-01  2.29860289E-01  1.76037249E-01  2.29860289E-01
  1.61781732E-01  2.86305013E-01  0.00000000E+00  0.00000000E+00  4.29141691E-01
  2.52996003E-01  0.00000000E+00  0.00000000E+00  4.64207549E-01 -1.04773804E-02
  0.00000000E+00  0.00000000E+00  7.80841952E-02  0.00000000E+00 -2.19534620E-02
  0.00000000E+00  0.00000000E+00 -4.81023733E-02  0.00000000E+00  0.00000000E+00
  0.00000000E+00 -1.22658810E-01  1.36643489E-02 -1.22658810E-01  1.36643489E-02
  2.54650548E-01  1.35634444E-01  0.00000000E+00  0.00000000E+00 -2.90870065E-01
  4.80257179E-02  0.00000000E+00  0.00000000E+00 -1.87476199E-01 -8.77615965E-02
  0.00000000E+00  0.00000000E+00  6.54056011E-01  0.00000000E+00 -1.82110220E-01
  0.00000000E+00  0.00000000E+00 -3.99022886E-01  0.00000000E+00  0.00000000E+00
  0.00000000E+00 -1.80424528E-01  8.31482570E-03 -1.80424528E-01  8.31482570E-03
  2.78245110E-01  5.68100851E-02  0.00000000E+00  0.00000000E+00 -7.12635372E-02
 -1.98284517E-02  0.00000000E+00  0.00000000E+00 -1.93851128E-02 -5.57251191E-02
  0.00000000E+00  0.00000000E+00  4.15299522E-01  0.00000000E+00  3.53377445E-01
  0.00000000E+00  0.00000000E+00  7.74287618E-01  0.00000000E+00  0.00000000E+00
  0.00000000E+00  1.09825998E-02 -7.30962355E-02  1.09825998E-02 -7.30962355E-02
  2.38439170E-18 -1.56786009E-17  0.00000000E+00  0.00000000E+00  2.33063713E-16
  1.76936271E-17  0.00000000E+00  0.00000000E+00  1.14458339E-16 -1.74730069E-01
  0.00000000E+00  0.00000000E+00 -2.34453771E-02  0.00000000E+00  8.95484162E-01
  0.00000000E+00  0.00000000E+00 -4.08690386E-01  0.00000000E+00  0.00000000E+00
  0.00000000E+00  9.61254556E-17 -5.95629610E-17  9.61254556E-17 -5.95629610E-17
 -1.91441566E-16  3.73751943E-17  0.00000000E+00  0.00000000E+00  2.40682761E-16
  1.94915889E-17  0.00000000E+00  0.00000000E+00  2.02693630E-16  9.75593875E-01
  0.00000000E+00  0.00000000E+00  1.30905724E-01  0.00000000E+00  1.60382321E-01
  0.00000000E+00  0.00000000E+00 -7.31969536E-02  0.00000000E+00  0.00000000E+00
  0.00000000E+00  3.16201363E-16 -1.62015739E-16  3.16201363E-16 -1.62015739E-16
  8.21641473E-01  1.04718858E-01  0.00000000E+00  0.00000000E+00 -1.79019047E-01
 -9.72465159E-02  0.00000000E+00  0.00000000E+00 -4.62948187E-02  6.28566320E-02
  0.00000000E+00  0.00000000E+00 -4.68448156E-01  0.00000000E+00 -3.74174913E-02
  0.00000000E+00  0.00000000E+00 -8.19857085E-02  0.00000000E+00  0.00000000E+00
  0.00000000E+00  1.21029324E-02 -1.66466464E-01  1.21029324E-02 -1.66466464E-01
  4.24430793E-01 -6.63631439E-01  0.00000000E+00  0.00000000E+00  7.02375434E-01
 -2.10002187E-01  0.00000000E+00  0.00000000E+00 -2.81803666E-01 -2.69426223E-02
  0.00000000E+00  0.00000000E+00  2.00793796E-01  0.00000000E+00 -4.00850228E-02
  0.00000000E+00  0.00000000E+00 -8.78305540E-02  0.00000000E+00  0.00000000E+00
  0.00000000E+00  1.04404039E-01  3.07682335E-01  1.04404039E-01  3.07682335E-01
  1.74204409E-01 -7.88799298E-01  0.00000000E+00  0.00000000E+00 -7.21979601E-01
  2.22512155E-01  0.00000000E+00  0.00000000E+00  9.03292086E-01  2.81600686E-03
  0.00000000E+00  0.00000000E+00 -2.09866991E-02  0.00000000E+00  1.71102477E-02
  0.00000000E+00  0.00000000E+00  3.74903749E-02  0.00000000E+00  0.00000000E+00
  0.00000000E+00 -1.02072322E-01  3.90909876E-01 -1.02072322E-01  3.90909876E-01
  6.17621607E-02 -2.99126263E-01  0.00000000E+00  0.00000000E+00  1.37773320E-03
  2.27811861E-01  0.00000000E+00  0.00000000E+00  5.34787029E-01 -7.23822122E-02
  0.00000000E+00  0.00000000E+00  5.39438922E-01  0.00000000E+00 -1.63701818E-01
  0.00000000E+00  0.00000000E+00 -3.58688119E-01  0.00000000E+00  0.00000000E+00
  0.00000000E+00  1.12637218E+00 -6.67364670E-01  1.12637218E+00 -6.67364670E-01
 -1.23043157E-02 -1.45343901E+00  0.00000000E+00  0.00000000E+00  2.25537018E-01
  3.12055848E+00  0.00000000E+00  0.00000000E+00 -1.21190532E+00  4.87141745E-02
  0.00000000E+00  0.00000000E+00 -3.63049442E-01  0.00000000E+00  8.37727611E-02
  0.00000000E+00  0.00000000E+00  1.83555041E-01  0.00000000E+00  0.00000000E+00
  0.00000000E+00 -6.50009627E-01 -9.33616830E-01 -6.50009627E-01 -9.33616830E-01
  0.00000000E+00  0.00000000E+00  0.00000000E+00  0.00000000E+00  0.00000000E+00
  0.00000000E+00  0.00000000E+00  0.00000000E+00  0.00000000E+00  0.00000000E+00
  0.00000000E+00  0.00000000E+00  0.00000000E+00  1.00000000E+00  0.00000000E+00
  0.00000000E+00  0.00000000E+00  0.00000000E+00  0.00000000E+00  0.00000000E+00
  0.00000000E+00  0.00000000E+00  0.00000000E+00  0.00000000E+00  0.00000000E+00
  0.00000000E+00  0.00000000E+00  0.00000000E+00  0.00000000E+00  0.00000000E+00
  0.00000000E+00  0.00000000E+00  0.00000000E+00  0.00000000E+00  0.00000000E+00
  0.00000000E+00  0.00000000E+00  0.00000000E+00  0.00000000E+00  0.00000000E+00
  0.00000000E+00  0.00000000E+00  0.00000000E+00  1.00000000E+00  0.00000000E+00
  0.00000000E+00  0.00000000E+00  0.00000000E+00  0.00000000E+00  0.00000000E+00
  0.00000000E+00  0.00000000E+00  5.77057836E-01  0.00000000E+00  0.00000000E+00
  0.00000000E+00  5.77057836E-01  0.00000000E+00  0.00000000E+00  0.00000000E+00
  0.00000000E+00  0.00000000E+00  0.00000000E+00  0.00000000E+00  0.00000000E+00
 -2.07162380E-16  0.00000000E+00  0.00000000E+00  0.00000000E+00 -3.07626154E-16
  0.00000000E+00  0.00000000E+00  0.00000000E+00  0.00000000E+00  0.00000000E+00
  0.00000000E+00  0.00000000E+00 -1.97373688E-16  0.00000000E+00  0.00000000E+00
  0.00000000E+00  8.15145517E-16  0.00000000E+00  0.00000000E+00  0.00000000E+00
  0.00000000E+00  0.00000000E+00  0.00000000E+00  0.00000000E+00  0.00000000E+00
  3.08118415E-01  0.00000000E+00  0.00000000E+00  0.00000000E+00  9.51348013E-01
  0.00000000E+00  0.00000000E+00  0.00000000E+00  0.00000000E+00  0.00000000E+00
  0.00000000E+00  0.00000000E+00 -7.05468216E-32  0.00000000E+00  0.00000000E+00
  0.00000000E+00  3.32815115E-17  0.00000000E+00  0.00000000E+00  0.00000000E+00
  9.82218972E-01  0.00000000E+00  0.00000000E+00  0.00000000E+00  0.00000000E+00
  1.78605018E-01  0.00000000E+00  0.00000000E+00  0.00000000E+00 -5.78458086E-02
  0.00000000E+00  0.00000000E+00  0.00000000E+00  0.00000000E+00  0.00000000E+00
  0.00000000E+00  0.00000000E+00  2.56934337E-32  0.00000000E+00  0.00000000E+00
  0.00000000E+00  1.74123392E-16  0.00000000E+00  0.00000000E+00  0.00000000E+00
 -1.87738888E-01  0.00000000E+00  0.00000000E+00  0.00000000E+00  0.00000000E+00
  9.34432068E-01  0.00000000E+00  0.00000000E+00  0.00000000E+00 -3.02639753E-01
  0.00000000E+00  0.00000000E+00  0.00000000E+00  0.00000000E+00  0.00000000E+00
  0.00000000E+00  0.00000000E+00  1.00152416E+00  0.00000000E+00  0.00000000E+00
  0.00000000E+00 -1.00152416E+00  0.00000000E+00  0.00000000E+00  0.00000000E+00
  0.00000000E+00  0.00000000E+00  0.00000000E+00  0.00000000E+00  0.00000000E+00
  4.81359092E-16  0.00000000E+00  0.00000000E+00  0.00000000E+00  9.10021187E-16
  0.00000000E+00  0.00000000E+00  0.00000000E+00  0.00000000E+00  0.00000000E+00
  0.00000000E+00  0.00000000E+00  0.00000000E+00  2.65653573E-01  0.00000000E+00
  0.00000000E+00  0.00000000E+00  3.82747572E-01  0.00000000E+00  0.00000000E+00
  0.00000000E+00 -1.46250900E-01  0.00000000E+00  0.00000000E+00  0.00000000E+00
  0.00000000E+00  3.05782725E-02  0.00000000E+00  0.00000000E+00  0.00000000E+00
 -2.69497365E-02  2.63589664E-01  1.65142557E-01 -2.63589664E-01 -1.65142557E-01
  0.00000000E+00  0.00000000E+00  0.00000000E+00  3.76160199E-01  0.00000000E+00
  0.00000000E+00  0.00000000E+00  2.68427183E-01  0.00000000E+00  0.00000000E+00
  0.00000000E+00  7.26461091E-01  0.00000000E+00  0.00000000E+00  0.00000000E+00
  0.00000000E+00 -1.69561191E-01  0.00000000E+00  0.00000000E+00  0.00000000E+00
  1.49440405E-01 -1.84444668E-01  3.03529240E-02  1.84444668E-01 -3.03529240E-02
  0.00000000E+00  0.00000000E+00  0.00000000E+00  1.93253132E-02  0.00000000E+00
  0.00000000E+00  0.00000000E+00  5.02947529E-03  0.00000000E+00  0.00000000E+00
  0.00000000E+00  2.88568462E-01  0.00000000E+00  0.00000000E+00  0.00000000E+00
  0.00000000E+00  7.17760485E-01  0.00000000E+00  0.00000000E+00  0.00000000E+00
 -6.32588252E-01  2.80552602E-03 -1.61388997E-02 -2.80552602E-03  1.61388997E-02
  0.00000000E+00  0.00000000E+00  0.00000000E+00 -3.81605192E-16  0.00000000E+00
  0.00000000E+00  0.00000000E+00  3.99077367E-17  0.00000000E+00  0.00000000E+00
  0.00000000E+00  5.61615738E-15  0.00000000E+00  0.00000000E+00  0.00000000E+00
  0.00000000E+00  6.61192626E-01  0.00000000E+00  0.00000000E+00  0.00000000E+00
  7.50216177E-01  2.15969080E-16 -1.01500503E-16 -2.15969080E-16  1.01500503E-16
  0.00000000E+00  0.00000000E+00  0.00000000E+00  9.74685670E-01  0.00000000E+00