[Molden Format]
[Atoms] Angs
O     1    8         0.0000000000        0.0000000000        0.1196030000
H     2    1         0.0000000000        0.7618130000       -0.4784100000
H     3    1         0.0000000000       -0.7618130000       -0.4784100000
[GTO]
  1 0
  s 6 1.00
  0.5484671660d+04 0.1831074430d-02
  0.8252349460d+03 0.1395017220d-01
  0.1880469580d+03 0.6844507810d-01
  0.5296450000d+02 0.2327143360d+00
  0.1689757040d+02 0.4701928980d+00
  0.5799635340d+01 0.3585208530d+00
  sp 3 1.00
  0.1553961625d+02 -0.1107775495d+00 0.7087426823d-01
  0.3599933586d+01 -0.1480262627d+00 0.3397528391d+00
  0.1013761750d+01 0.1130767015d+01 0.7271585773d+00
  sp 1 1.00
  0.2700058226d+00 0.1000000000d+01 0.1000000000d+01
 
  2 0
  s 3 1.00
  0.1873113696d+02 0.3349460434d-01
  0.2825394365d+01 0.2347269535d+00
  0.6401216923d+00 0.8137573261d+00
  s 1 1.00
  0.1612777588d+00 0.1000000000d+01
 
  3 0
  s 3 1.00
  0.1873113696d+02 0.3349460434d-01
  0.2825394365d+01 0.2347269535d+00
  0.6401216923d+00 0.8137573261d+00
  s 1 1.00
  0.1612777588d+00 0.1000000000d+01
 
[MO]
 Sym=            1
 Ene=   -20.5632200000000     
 Spin= Alpha
 Occup=    2.000000    
     1        0.9957900000
     2        0.0219100000
     3        0.0000000000
     4        0.0000000000
     5       -0.0020900000
     6       -0.0079900000
     7        0.0000000000
     8        0.0000000000
     9        0.0019600000
    10        0.0001500000
    11        0.0019500000
    12        0.0001500000
    13        0.0019500000
 Sym=            2
 Ene=   -1.35129000000000     
 Spin= Alpha
 Occup=    2.000000    
     1       -0.2126200000
     2        0.4694300000
     3        0.0000000000
     4        0.0000000000
     5       -0.1095800000
     6        0.4831900000
     7        0.0000000000
     8        0.0000000000
     9       -0.0614700000
    10        0.1374900000
    11       -0.0077600000
    12        0.1374900000
    13       -0.0077600000
 Sym=            3
 Ene=  -0.702590000000000     
 Spin= Alpha
 Occup=    2.000000    
     1        0.0000000000
     2        0.0000000000
     3        0.0000000000
     4        0.5044400000
     5        0.0000000000
     6        0.0000000000
     7        0.0000000000
     8        0.2733300000
     9        0.0000000000
    10        0.2609700000
    11        0.1269600000
    12       -0.2609700000
    13       -0.1269600000
 Sym=            4
 Ene=  -0.560460000000000     
 Spin= Alpha
 Occup=    2.000000    
     1       -0.0759100000
     2        0.1814300000
     3        0.0000000000
     4        0.0000000000
     5        0.5483300000
     6        0.3058300000
     7        0.0000000000
     8        0.0000000000
     9        0.4013200000
    10       -0.1453700000
    11       -0.0835900000
    12       -0.1453700000
    13       -0.0835900000
 Sym=            5
 Ene=  -0.501170000000000     
 Spin= Alpha
 Occup=    2.000000    
     1        0.0000000000
     2        0.0000000000
     3        0.6422000000
     4        0.0000000000
     5        0.0000000000
     6        0.0000000000
     7        0.5093800000
     8        0.0000000000
     9        0.0000000000
    10        0.0000000000
    11        0.0000000000
    12        0.0000000000
    13        0.0000000000
 Sym=            6
 Ene=   0.200940000000000     
 Spin= Alpha
 Occup=   0.0000000E+00
     1       -0.0845400000
     2        0.1043000000
     3        0.0000000000
     4        0.0000000000
     5       -0.2360700000
     6        1.1602300000
     7        0.0000000000
     8        0.0000000000
     9       -0.4805400000
    10       -0.0596200000
    11       -0.9830100000
    12       -0.0596200000
    13       -0.9830100000
 Sym=            7
 Ene=   0.296590000000000     
 Spin= Alpha
 Occup=   0.0000000E+00
     1        0.0000000000
     2        0.0000000000
     3        0.0000000000
     4       -0.3415200000
     5        0.0000000000
     6        0.0000000000
     7        0.0000000000
     8       -0.8176600000
     9        0.0000000000
    10        0.0462000000
    11        1.3644300000
    12       -0.0462000000
    13       -1.3644300000
 Sym=            8
 Ene=    1.04912000000000     
 Spin= Alpha
 Occup=   0.0000000E+00
     1        0.0000000000
     2        0.0000000000
     3        0.0000000000
     4       -0.1148200000
     5        0.0000000000
     6        0.0000000000
     7        0.0000000000
     8       -0.6993200000
     9        0.0000000000
    10        0.9725600000
    11       -0.5283100000
    12       -0.9725600000
    13        0.5283100000
 Sym=            9
 Ene=    1.16416000000000     
 Spin= Alpha
 Occup=   0.0000000E+00
     1        0.0000000000
     2        0.0000000000
     3       -0.9610500000
     4        0.0000000000
     5        0.0000000000
     6        0.0000000000
     7        1.0375900000
     8        0.0000000000
     9        0.0000000000
    10        0.0000000000
    11        0.0000000000
    12        0.0000000000
    13        0.0000000000
 Sym=           10
 Ene=    1.17492000000000     
 Spin= Alpha
 Occup=   0.0000000E+00
     1        0.0531800000
     2       -0.2757300000
     3        0.0000000000
     4        0.0000000000
     5        0.6492000000
     6        0.2035200000
     7        0.0000000000
     8        0.0000000000
     9       -0.1985900000
    10        0.8506000000
    11       -0.5592000000
    12        0.8506000000
    13       -0.5592000000
 Sym=           11
 Ene=    1.21817000000000     
 Spin= Alpha
 Occup=   0.0000000E+00
     1  6.820000000000000E-002
     2 -0.453670000000000     
     3  0.000000000000000E+000
     4  0.000000000000000E+000
     5 -0.735970000000000     
     6  9.629000000000000E-002
     7  0.000000000000000E+000
     8  0.000000000000000E+000
     9   1.17746000000000     
    10  0.501790000000000     
    11 -6.467000000000001E-002
    12  0.501790000000000     
    13 -6.467000000000001E-002
 Sym=           12
 Ene=    1.37524000000000     
 Spin= Alpha
 Occup=   0.0000000E+00
     1  0.000000000000000E+000
     2  0.000000000000000E+000
     3  0.000000000000000E+000
     4  -1.03120000000000     
     5  0.000000000000000E+000
     6  0.000000000000000E+000
     7  0.000000000000000E+000
     8   1.54260000000000     
     9  0.000000000000000E+000
    10  7.496999999999999E-002
    11 -0.885330000000000     
    12 -7.496999999999999E-002
    13  0.885330000000000     
 Sym=           13
 Ene=    1.69826000000000     
 Spin= Alpha
 Occup=   0.0000000E+00
     1  5.354000000000000E-002
     2  -1.66463000000000     
     3  0.000000000000000E+000
     4  0.000000000000000E+000
     5  0.209390000000000     
     6   2.72547000000000     
     7  0.000000000000000E+000
     8  0.000000000000000E+000
     9 -0.878590000000000     
    10 -0.478450000000000     
    11 -0.595840000000000     
    12 -0.478450000000000     
    13 -0.595840000000000     
