[Molden Format]
[GTO]
    1 0
 s   6 1.00
     130.7093200    0.1543289700
      23.8088610    0.5353281400
       6.4436083    0.4446345400
       5.0331513    0.0000000000
       1.1695961    0.0000000000
       0.3803890    0.0000000000
 s   6 1.00
     130.7093200    0.0000000000
      23.8088610    0.0000000000
       6.4436083    0.0000000000
       5.0331513   -0.0999672300
       1.1695961    0.3995128300
       0.3803890    0.7001154700
 p   3 1.00
       5.0331513    0.1559162700
       1.1695961    0.6076837200
       0.3803890    0.3919573900

    2 0
 s   3 1.00
       3.4252509    0.1543289700
       0.6239137    0.5353281400
       0.1688554    0.4446345400

    3 0
 s   3 1.00
       3.4252509    0.1543289700
       0.6239137    0.5353281400
       0.1688554    0.4446345400

[SCFCONV]
scf-first  1  THROUGH   7
      -74.8651383239
      -74.9544972527
      -74.9639135599
      -74.9645055556
      -74.9645127656
      -74.9645141064
      -74.9645141067
[TITLE]
*** Dalton interface to Molden, wave function type : HF            30Mar24   11:
[Atoms] AU
O          1     8         0.0000000000         0.0000000000        -0.125851566
H_1        2     1         0.0000000000         1.4523499293         0.998677898
H_1        3     1         0.0000000000        -1.4523499293         0.998677898
[5D7F]
[9G]
[MO]
Sym= A1
Ene=  -20.2436
Spin= Alpha
Occup=  2.0000
    1        0.994165
    2        0.026253
    5        0.004204
    6       -0.005808
    7       -0.005808
Sym= A1
Ene=   -1.2610
Spin= Alpha
Occup=  2.0000
    1       -0.233373
    2        0.838951
    5        0.124510
    6        0.157650
    7        0.157650
Sym= A1
Ene=   -0.4513
Spin= Alpha
Occup=  2.0000
    1        0.102393
    2       -0.531997
    5        0.773450
    6        0.283723
    7        0.283723
Sym= A1
Ene=    0.5911
Spin= Alpha
Occup=  0.0000
    1        0.130278
    2       -0.859177
    5       -0.741542
    6        0.786532
    7        0.786532
Sym= B1
Ene=   -0.3903
Spin= Alpha
Occup=  2.0000
    3        1.000000
Sym= B2
Ene=   -0.6101
Spin= Alpha
Occup=  2.0000
    4        0.605958
    6        0.445981
    7       -0.445981
Sym= B2
Ene=    0.7249
Spin= Alpha
Occup=  0.0000
    4       -0.982149
    6        0.825387
    7       -0.825387
[End of Molden output from Dalton]
