Energy water                                                            
SP        RHF                                                         STO-3G              
Number of atoms                            I                3
Info1-9                                    I   N=           9
          11          10           0           0           0         110
           1           1           2
Full Title                                 C   N=           1
Energy water
Route                                      C   N=           1
#P HF/STO-3G
Charge                                     I                0
Multiplicity                               I                1
Number of electrons                        I               10
Number of alpha electrons                  I                5
Number of beta electrons                   I                5
Number of basis functions                  I                7
Number of independent functions            I                7
Number of point charges in /Mol/           I                0
Number of translation vectors              I                0
Atomic numbers                             I   N=           3
           8           1           1
Nuclear charges                            R   N=           3
  8.00000000E+00  1.00000000E+00  1.00000000E+00
Current cartesian coordinates              R   N=           9
  1.38394898E-17  1.38394898E-17  2.26016022E-01  2.09095447E-16  1.43961729E+00
 -9.04064083E-01 -4.96113637E-16 -1.43961729E+00 -9.04064083E-01
Number of symbols in /Mol/                 I                0
Force Field                                I                0
Atom Types                                 C   N=           3
                                    
Int Atom Types                             I   N=           3
           0           0           0
MM charges                                 R   N=           3
  0.00000000E+00  0.00000000E+00  0.00000000E+00
Integer atomic weights                     I   N=           3
          16           1           1
Real atomic weights                        R   N=           3
  1.59949146E+01  1.00782504E+00  1.00782504E+00
Atom fragment info                         I   N=           3
           0           0           0
Atom residue num                           I   N=           3
           0           0           0
Nuclear spins                              I   N=           3
           0           1           1
Nuclear ZEff                               R   N=           3
 -5.60000000E+00 -1.00000000E+00 -1.00000000E+00
Nuclear ZNuc                               R   N=           3
  8.00000000E+00  1.00000000E+00  1.00000000E+00
Nuclear QMom                               R   N=           3
  0.00000000E+00  0.00000000E+00  0.00000000E+00
Nuclear GFac                               R   N=           3
  0.00000000E+00  2.79284600E+00  2.79284600E+00
MicOpt                                     I   N=           3
          -1          -1          -1
Number of residues                         I                0
Number of secondary structures             I                0
SymInf integers                            I   N=          26
           2           4           1           1           1          -1
          -1           1          -1           1           1           1
          -1           1           0           0           0           0
           0           0           0           0           0           0
           0           0
RotTr to input orientation                 R   N=          12
  1.00000000E+00 -1.83697020E-16 -6.12323400E-17  1.83697020E-16  1.00000000E+00
 -6.12323400E-17  6.12323400E-17  6.12323400E-17  1.00000000E+00  0.00000000E+00
  0.00000000E+00  7.55890461E-10
Number of contracted shells                I                4
Number of primitive shells                 I               12
Pure/Cartesian d shells                    I                0
Pure/Cartesian f shells                    I                0
Highest angular momentum                   I                1
Largest degree of contraction              I                3
Shell types                                I   N=           4
           0          -1           0           0
Number of primitives per shell             I   N=           4
           3           3           3           3
Shell to atom map                          I   N=           4
           1           1           2           3
Primitive exponents                        R   N=          12
  1.30709321E+02  2.38088661E+01  6.44360831E+00  5.03315132E+00  1.16959612E+00
  3.80388960E-01  3.42525091E+00  6.23913730E-01  1.68855404E-01  3.42525091E+00
  6.23913730E-01  1.68855404E-01
Contraction coefficients                   R   N=          12
  1.54328967E-01  5.35328142E-01  4.44634542E-01 -9.99672292E-02  3.99512826E-01
  7.00115469E-01  1.54328967E-01  5.35328142E-01  4.44634542E-01  1.54328967E-01
  5.35328142E-01  4.44634542E-01
P(S=P) Contraction coefficients            R   N=          12
  0.00000000E+00  0.00000000E+00  0.00000000E+00  1.55916275E-01  6.07683719E-01
  3.91957393E-01  0.00000000E+00  0.00000000E+00  0.00000000E+00  0.00000000E+00
  0.00000000E+00  0.00000000E+00
Coordinates of each shell                  R   N=          12
  6.96465636E-34 -1.39293127E-33  2.26016021E-01  6.96465636E-34 -1.39293127E-33
  2.26016021E-01  0.00000000E+00  1.43961729E+00 -9.04064084E-01 -1.76302271E-16
 -1.43961729E+00 -9.04064084E-01
Num ILSW                                   I              100
ILSW                                       I   N=         100
           0           0           0           0           2           0
           0           0           0           0           0          -1
           5           0           0           0           0           0
           0           0           0           0           0           0
           1           0           0           0           0           0
           0           0      100000           0          -1           0
           0           0           0           0           0           0
           0           0           0           1           0           0
           0 -2000000000           1           0           0           0
           0           0           4          52           0           0
           0           0           0           0           0           0
           0           0           0           3           0           1
           0           0           0           0           0           0
           0           0           0           0           0           0
           0           0           0           0           0           0
           0           0           0           0           0           0
           0           0           0           0
Num RLSW                                   I               52
RLSW                                       R   N=          52
  1.00000000E+00  1.00000000E+00  1.00000000E+00  1.00000000E+00  1.00000000E+00
  0.00000000E+00  0.00000000E+00  1.00000000E+00  0.00000000E+00  0.00000000E+00
  0.00000000E+00  0.00000000E+00  1.00000000E+00  0.00000000E+00  0.00000000E+00
  0.00000000E+00  0.00000000E+00  1.00000000E+00  0.00000000E+00  0.00000000E+00
  0.00000000E+00  0.00000000E+00  1.00000000E+00  0.00000000E+00  0.00000000E+00
  0.00000000E+00  0.00000000E+00  1.00000000E+00  0.00000000E+00  0.00000000E+00
  0.00000000E+00  0.00000000E+00  1.00000000E+00  0.00000000E+00  0.00000000E+00
  0.00000000E+00  0.00000000E+00  0.00000000E+00  1.00000000E+00  1.00000000E+00
  0.00000000E+00  1.00000000E+00  0.00000000E+00  0.00000000E+00  0.00000000E+00
  0.00000000E+00  0.00000000E+00  0.00000000E+00  0.00000000E+00  0.00000000E+00
  0.00000000E+00  0.00000000E+00
MxBond                                     I                2
NBond                                      I   N=           3
           2           1           1
IBond                                      I   N=           6
           2           3           1           0           1           0
RBond                                      R   N=           6
  1.00000000E+00  1.00000000E+00  1.00000000E+00  0.00000000E+00  1.00000000E+00
  0.00000000E+00
Virial Ratio                               R      2.005385687428693E+00
SCF Energy                                 R     -7.496447355188646E+01
Total Energy                               R     -7.496447355188646E+01
RMS Density                                R      2.264943826226881E-10
Job Status                                 I                1
Nuclear derivative order                   I                0
External E-field                           R   N=          35
  0.00000000E+00  0.00000000E+00  0.00000000E+00  0.00000000E+00  0.00000000E+00
  0.00000000E+00  0.00000000E+00  0.00000000E+00  0.00000000E+00  0.00000000E+00
  0.00000000E+00  0.00000000E+00  0.00000000E+00  0.00000000E+00  0.00000000E+00
  0.00000000E+00  0.00000000E+00  0.00000000E+00  0.00000000E+00  0.00000000E+00
  0.00000000E+00  0.00000000E+00  0.00000000E+00  0.00000000E+00  0.00000000E+00
  0.00000000E+00  0.00000000E+00  0.00000000E+00  0.00000000E+00  0.00000000E+00
  0.00000000E+00  0.00000000E+00  0.00000000E+00  0.00000000E+00  0.00000000E+00
IOpCl                                      I                0
IROHF                                      I                0
Alpha Orbital Energies                     R   N=           7
 -2.02441848E+01 -1.26361951E+00 -6.10737528E-01 -4.53512705E-01 -3.91120430E-01
  5.95889513E-01  7.26824263E-01
Alpha MO coefficients                      R   N=          49
  9.94158437E-01  2.63151521E-02  0.00000000E+00  0.00000000E+00 -4.26098283E-03
 -5.84066519E-03 -5.84066519E-03 -2.33171759E-01  8.37488781E-01  0.00000000E+00
  0.00000000E+00 -1.26491435E-01  1.57786371E-01  1.57786371E-01  0.00000000E+00
  0.00000000E+00  0.00000000E+00  6.07189953E-01  0.00000000E+00  4.46172999E-01
 -4.46172999E-01 -1.03065505E-01  5.35443489E-01  0.00000000E+00  0.00000000E+00
  7.71826091E-01 -2.83176414E-01 -2.83176414E-01  0.00000000E+00  0.00000000E+00
  1.00000000E+00  0.00000000E+00  0.00000000E+00  0.00000000E+00  0.00000000E+00
 -1.30439205E-01  8.63427660E-01  0.00000000E+00  0.00000000E+00 -7.45861309E-01
 -7.88155303E-01 -7.88155303E-01  0.00000000E+00  0.00000000E+00  0.00000000E+00
  9.81914265E-01  0.00000000E+00 -8.29084141E-01  8.29084141E-01
Orthonormal basis                          R   N=          49
  1.51379944E-01  4.21043477E-01  0.00000000E+00  0.00000000E+00 -1.96579825E-01
  3.75648475E-01  3.75648475E-01  6.16831162E-01  3.01742922E-01  0.00000000E+00
  0.00000000E+00  6.40801187E-01 -1.25721488E-01 -1.25721488E-01  7.56493202E-01
 -2.98388413E-01  0.00000000E+00  0.00000000E+00 -6.48460747E-01 -1.54875783E-01
 -1.54875783E-01 -3.07698583E-01  1.17342446E+00  0.00000000E+00  0.00000000E+00
 -5.46142579E-01 -7.38514818E-01 -7.38514818E-01  0.00000000E+00  0.00000000E+00
  1.00000000E+00  0.00000000E+00  0.00000000E+00  0.00000000E+00  0.00000000E+00
  0.00000000E+00  0.00000000E+00  0.00000000E+00  6.93317807E-01  0.00000000E+00
  3.69538693E-01 -3.69538693E-01  0.00000000E+00  0.00000000E+00  0.00000000E+00
 -9.23117371E-01  0.00000000E+00  8.65963055E-01 -8.65963055E-01
Total SCF Density                          R   N=          28
  2.10668513E+00 -4.48606110E-01  1.97755935E+00  0.00000000E+00  0.00000000E+00
  2.00000000E+00 -3.34591087E-34  1.89340157E-33  1.23259516E-32  7.37359278E-01
 -1.08581016E-01  6.14443938E-01 -6.16297582E-33  8.31442774E-33  1.22346751E+00
 -2.68243038E-02 -3.92686999E-02 -9.24446373E-33  5.41823525E-01 -4.76993365E-01
  6.08379758E-01 -2.68243038E-02 -3.92686999E-02  9.24446373E-33 -5.41823525E-01
 -4.76993365E-01 -1.87901623E-01  6.08379758E-01
Mulliken Charges                           R   N=           3
 -3.54609651E-01  1.77304825E-01  1.77304825E-01
ONIOM Charges                              I   N=          16
           0           0           0           0           0           0
           0           0           0           0           0           0
           0           0           0           0
ONIOM Multiplicities                       I   N=          16
           1           0           0           0           0           0
           0           0           0           0           0           0
           0           0           0           0
Atom Layers                                I   N=           3
           1           1           1
Atom Modifiers                             I   N=           3
           0           0           0
Force Field                                I                0
Atom Modified Types                        C   N=           3
                                    
Int Atom Modified Types                    I   N=           3
           0           0           0
Link Atoms                                 I   N=           3
           0           0           0
Atom Modified MM Charges                   R   N=           3
  0.00000000E+00  0.00000000E+00  0.00000000E+00
Link Distances                             R   N=          12
  0.00000000E+00  0.00000000E+00  0.00000000E+00  0.00000000E+00  0.00000000E+00
  0.00000000E+00  0.00000000E+00  0.00000000E+00  0.00000000E+00  0.00000000E+00
  0.00000000E+00  0.00000000E+00
Cartesian Gradient                         R   N=           9
  0.00000000E+00  0.00000000E+00  0.00000000E+00  0.00000000E+00  0.00000000E+00
  0.00000000E+00  0.00000000E+00  0.00000000E+00  0.00000000E+00
Nonadiabatic coupling                      R   N=           9
  0.00000000E+00  0.00000000E+00  0.00000000E+00  0.00000000E+00  0.00000000E+00
  0.00000000E+00  0.00000000E+00  0.00000000E+00  0.00000000E+00
Dipole Moment                              R   N=           3
 -3.67711972E-17  3.56348462E-17 -6.75072401E-01
Quadrupole Moment                          R   N=           6
 -6.06736977E-01  6.77683079E-01 -7.09461025E-02  5.15220422E-17  3.78570154E-17
  2.48874693E-17
QEq coupling tensors                       R   N=          18
  2.67946399E+00  1.19626852E-16 -2.31727660E+00  1.05389535E-16  2.92643367E-18
 -3.62187386E-01  2.65889672E-01  3.75529965E-18 -2.42796857E-01  2.46399652E-18
  3.18357466E-01 -2.30928155E-02  2.65889672E-01 -1.17589667E-16 -2.42796857E-01
 -8.72972914E-17 -3.18357466E-01 -2.30928155E-02
Gaussian Version                           C   N=           2
ES64L-G16RevB.01        
