Energy water                                                            
SP        RHF                                                         6-31G               
Number of atoms                            I                3
Info1-9                                    I   N=           9
          11          10           0           0           0         111
           1           1           2
Full Title                                 C   N=           1
Energy water
Route                                      C   N=           3
#P HF/6-31G iop(3/33=4) pop=full    
Charge                                     I                0
Multiplicity                               I                1
Number of electrons                        I               10
Number of alpha electrons                  I                5
Number of beta electrons                   I                5
Number of basis functions                  I               13
Number of independent functions            I               13
Number of point charges in /Mol/           I                0
Number of translation vectors              I                0
Atomic numbers                             I   N=           3
           8           1           1
Nuclear charges                            R   N=           3
  8.00000000E+00  1.00000000E+00  1.00000000E+00
Current cartesian coordinates              R   N=           9
  1.38394898E-17  1.38394898E-17  2.26016022E-01  2.09095447E-16  1.43961729E+00
 -9.04064083E-01 -4.96113637E-16 -1.43961729E+00 -9.04064083E-01
Number of symbols in /Mol/                 I                0
Force Field                                I                0
Atom Types                                 C   N=           3
                                    
Int Atom Types                             I   N=           3
           0           0           0
MM charges                                 R   N=           3
  0.00000000E+00  0.00000000E+00  0.00000000E+00
Integer atomic weights                     I   N=           3
          16           1           1
Real atomic weights                        R   N=           3
  1.59949146E+01  1.00782504E+00  1.00782504E+00
Atom fragment info                         I   N=           3
           0           0           0
Atom residue num                           I   N=           3
           0           0           0
Nuclear spins                              I   N=           3
           0           1           1
Nuclear ZEff                               R   N=           3
 -5.60000000E+00 -1.00000000E+00 -1.00000000E+00
Nuclear ZNuc                               R   N=           3
  8.00000000E+00  1.00000000E+00  1.00000000E+00
Nuclear QMom                               R   N=           3
  0.00000000E+00  0.00000000E+00  0.00000000E+00
Nuclear GFac                               R   N=           3
  0.00000000E+00  2.79284600E+00  2.79284600E+00
MicOpt                                     I   N=           3
          -1          -1          -1
Number of residues                         I                0
Number of secondary structures             I                0
SymInf integers                            I   N=          26
           2           4           1           1           1          -1
          -1           1          -1           1           1           1
          -1           1           0           0           0           0
           0           0           0           0           0           0
           0           0
RotTr to input orientation                 R   N=          12
  1.00000000E+00 -1.83697020E-16 -6.12323400E-17  1.83697020E-16  1.00000000E+00
 -6.12323400E-17  6.12323400E-17  6.12323400E-17  1.00000000E+00  0.00000000E+00
  0.00000000E+00  7.55890461E-10
Number of contracted shells                I                7
Number of primitive shells                 I               18
Pure/Cartesian d shells                    I                1
Pure/Cartesian f shells                    I                0
Highest angular momentum                   I                1
Largest degree of contraction              I                6
Shell types                                I   N=           7
           0          -1          -1           0           0           0
           0
Number of primitives per shell             I   N=           7
           6           3           1           3           1           3
           1
Shell to atom map                          I   N=           7
           1           1           1           2           2           3
           3
Primitive exponents                        R   N=          18
  5.48467166E+03  8.25234946E+02  1.88046958E+02  5.29645000E+01  1.68975704E+01
  5.79963534E+00  1.55396162E+01  3.59993359E+00  1.01376175E+00  2.70005823E-01
  1.87311370E+01  2.82539436E+00  6.40121692E-01  1.61277759E-01  1.87311370E+01
  2.82539436E+00  6.40121692E-01  1.61277759E-01
Contraction coefficients                   R   N=          18
  1.83107443E-03  1.39501722E-02  6.84450781E-02  2.32714336E-01  4.70192898E-01
  3.58520853E-01 -1.10777550E-01 -1.48026263E-01  1.13076702E+00  1.00000000E+00
  3.34946043E-02  2.34726953E-01  8.13757326E-01  1.00000000E+00  3.34946043E-02
  2.34726953E-01  8.13757326E-01  1.00000000E+00
P(S=P) Contraction coefficients            R   N=          18
  0.00000000E+00  0.00000000E+00  0.00000000E+00  0.00000000E+00  0.00000000E+00
  0.00000000E+00  7.08742682E-02  3.39752839E-01  7.27158577E-01  1.00000000E+00
  0.00000000E+00  0.00000000E+00  0.00000000E+00  0.00000000E+00  0.00000000E+00
  0.00000000E+00  0.00000000E+00  0.00000000E+00
Coordinates of each shell                  R   N=          21
  6.96465636E-34 -1.39293127E-33  2.26016021E-01  6.96465636E-34 -1.39293127E-33
  2.26016021E-01  6.96465636E-34 -1.39293127E-33  2.26016021E-01  0.00000000E+00
  1.43961729E+00 -9.04064084E-01  0.00000000E+00  1.43961729E+00 -9.04064084E-01
 -1.76302271E-16 -1.43961729E+00 -9.04064084E-01 -1.76302271E-16 -1.43961729E+00
 -9.04064084E-01
Num ILSW                                   I              100
ILSW                                       I   N=         100
           0           1           0           0           2           0
           0           0           0           0           0          -1
           5           0           0           0           0           0
           0           0           0           0           0           0
           1           0           0           0           0           0
           0           0      100000           0          -1           0
           0           0           0           0           0           0
           0           0           0           1           0           0
           0 -2000000000           1           0           0           0
           0           0           4          52           0           0
           0           0           0           0           0           0
           0           0           0           3           0           1
           0           0           0           0           0           0
           0           0           0           0           0           0
           0           0           0           0           0           0
           0           0           0           0           0           0
           0           0           0           0
Num RLSW                                   I               52
RLSW                                       R   N=          52
  1.00000000E+00  1.00000000E+00  1.00000000E+00  1.00000000E+00  1.00000000E+00
  0.00000000E+00  0.00000000E+00  1.00000000E+00  0.00000000E+00  0.00000000E+00
  0.00000000E+00  0.00000000E+00  1.00000000E+00  0.00000000E+00  0.00000000E+00
  0.00000000E+00  0.00000000E+00  1.00000000E+00  0.00000000E+00  0.00000000E+00
  0.00000000E+00  0.00000000E+00  1.00000000E+00  0.00000000E+00  0.00000000E+00
  0.00000000E+00  0.00000000E+00  1.00000000E+00  0.00000000E+00  0.00000000E+00
  0.00000000E+00  0.00000000E+00  1.00000000E+00  0.00000000E+00  0.00000000E+00
  0.00000000E+00  0.00000000E+00  0.00000000E+00  1.00000000E+00  1.00000000E+00
  0.00000000E+00  1.00000000E+00  0.00000000E+00  0.00000000E+00  0.00000000E+00
  0.00000000E+00  0.00000000E+00  0.00000000E+00  0.00000000E+00  0.00000000E+00
  0.00000000E+00  0.00000000E+00
MxBond                                     I                2
NBond                                      I   N=           3
           2           1           1
IBond                                      I   N=           6
           2           3           1           0           1           0
RBond                                      R   N=           6
  1.00000000E+00  1.00000000E+00  1.00000000E+00  0.00000000E+00  1.00000000E+00
  0.00000000E+00
Virial Ratio                               R      2.000393995747539E+00
SCF Energy                                 R     -7.598331875665666E+01
Total Energy                               R     -7.598331875665666E+01
RMS Density                                R      3.142869117132791E-09
Job Status                                 I                1
Nuclear derivative order                   I                0
External E-field                           R   N=          35
  0.00000000E+00  0.00000000E+00  0.00000000E+00  0.00000000E+00  0.00000000E+00
  0.00000000E+00  0.00000000E+00  0.00000000E+00  0.00000000E+00  0.00000000E+00
  0.00000000E+00  0.00000000E+00  0.00000000E+00  0.00000000E+00  0.00000000E+00
  0.00000000E+00  0.00000000E+00  0.00000000E+00  0.00000000E+00  0.00000000E+00
  0.00000000E+00  0.00000000E+00  0.00000000E+00  0.00000000E+00  0.00000000E+00
  0.00000000E+00  0.00000000E+00  0.00000000E+00  0.00000000E+00  0.00000000E+00
  0.00000000E+00  0.00000000E+00  0.00000000E+00  0.00000000E+00  0.00000000E+00
IOpCl                                      I                0
IROHF                                      I                0
Alpha Orbital Energies                     R   N=          13
 -2.05632189E+01 -1.35129472E+00 -7.02587874E-01 -5.60463665E-01 -5.01169049E-01
  2.00943933E-01  2.96593350E-01  1.04912331E+00  1.16415798E+00  1.17491527E+00
  1.21817389E+00  1.37524047E+00  1.69826222E+00
Alpha MO coefficients                      R   N=         169
  9.95792936E-01  2.19065752E-02  0.00000000E+00  0.00000000E+00 -2.09073811E-03
 -7.98579910E-03  0.00000000E+00  0.00000000E+00  1.95867058E-03  1.47007045E-04
  1.94676587E-03  1.47007045E-04  1.94676587E-03 -2.12620126E-01  4.69426483E-01
  0.00000000E+00  0.00000000E+00 -1.09582141E-01  4.83187808E-01  0.00000000E+00
  0.00000000E+00 -6.14715928E-02  1.37489322E-01 -7.75698192E-03  1.37489322E-01
 -7.75698192E-03  0.00000000E+00  0.00000000E+00  0.00000000E+00  5.04441192E-01
  0.00000000E+00  0.00000000E+00  0.00000000E+00  2.73327175E-01  0.00000000E+00
  2.60969600E-01  1.26964300E-01 -2.60969600E-01 -1.26964300E-01 -7.59070381E-02
  1.81429575E-01  0.00000000E+00  0.00000000E+00  5.48329939E-01  3.05831867E-01
  0.00000000E+00  0.00000000E+00  4.01317138E-01 -1.45370697E-01 -8.35928873E-02
 -1.45370697E-01 -8.35928873E-02  0.00000000E+00  0.00000000E+00  6.42199862E-01
  0.00000000E+00  0.00000000E+00  0.00000000E+00  5.09375600E-01  0.00000000E+00
  0.00000000E+00  0.00000000E+00  0.00000000E+00  0.00000000E+00  0.00000000E+00
 -8.45421415E-02  1.04302786E-01  0.00000000E+00  0.00000000E+00 -2.36068916E-01
  1.16022915E+00  0.00000000E+00  0.00000000E+00 -4.80535679E-01 -5.96236702E-02
 -9.83009715E-01 -5.96236702E-02 -9.83009715E-01  0.00000000E+00  0.00000000E+00
  0.00000000E+00 -3.41515684E-01  0.00000000E+00  0.00000000E+00  0.00000000E+00
 -8.17664599E-01  0.00000000E+00  4.61974252E-02  1.36442738E+00 -4.61974252E-02
 -1.36442738E+00  0.00000000E+00  0.00000000E+00  0.00000000E+00 -1.14821533E-01
  0.00000000E+00  0.00000000E+00  0.00000000E+00 -6.99317524E-01  0.00000000E+00
  9.72556211E-01 -5.28314276E-01 -9.72556211E-01  5.28314276E-01  0.00000000E+00
  0.00000000E+00 -9.61054489E-01  0.00000000E+00  0.00000000E+00  0.00000000E+00
  1.03758513E+00  0.00000000E+00  0.00000000E+00  0.00000000E+00  0.00000000E+00
  0.00000000E+00  0.00000000E+00  5.31759748E-02 -2.75733707E-01  0.00000000E+00
  0.00000000E+00  6.49203819E-01  2.03515107E-01  0.00000000E+00  0.00000000E+00
 -1.98585333E-01  8.50601067E-01 -5.59198899E-01  8.50601067E-01 -5.59198899E-01
  6.82044275E-02 -4.53670064E-01  0.00000000E+00  0.00000000E+00 -7.35971306E-01
  9.62896615E-02  0.00000000E+00  0.00000000E+00  1.17746373E+00  5.01794783E-01
 -6.46703795E-02  5.01794783E-01 -6.46703795E-02  0.00000000E+00  0.00000000E+00
  0.00000000E+00 -1.03120100E+00  0.00000000E+00  0.00000000E+00  0.00000000E+00
  1.54260154E+00  0.00000000E+00  7.49720241E-02 -8.85332415E-01 -7.49720241E-02
  8.85332415E-01  5.35433435E-02 -1.66462677E+00  0.00000000E+00  0.00000000E+00
  2.09385696E-01  2.72547220E+00  0.00000000E+00  0.00000000E+00 -8.78590897E-01
 -4.78446448E-01 -5.95837067E-01 -4.78446448E-01 -5.95837067E-01
Orthonormal basis                          R   N=         169
  5.37100707E-02  1.91437688E-01  0.00000000E+00  0.00000000E+00 -6.76079340E-02
  2.53845742E-01  0.00000000E+00  0.00000000E+00 -1.22386265E-01  1.74273169E-01
  2.31703323E-01  1.74273169E-01  2.31703323E-01  1.59506928E-01  2.80237525E-01
  0.00000000E+00  0.00000000E+00  4.42726831E-01  2.46269049E-01  0.00000000E+00
  0.00000000E+00  4.77529929E-01 -1.13587345E-01  6.98285674E-03 -1.13587345E-01
  6.98285674E-03  8.83867995E-01  1.82879433E-01  0.00000000E+00  0.00000000E+00
 -3.10059460E-01 -5.82696488E-02  0.00000000E+00  0.00000000E+00 -1.19000580E-01
 -8.13110629E-02 -1.61579403E-01 -8.13110629E-02 -1.61579403E-01  4.66071311E-01
 -6.56714030E-01  0.00000000E+00  0.00000000E+00  7.12464881E-01 -2.37924685E-01
  0.00000000E+00  0.00000000E+00 -2.21469417E-01  1.97201445E-01  2.44737283E-01
  1.97201445E-01  2.44737283E-01  1.73191201E-01 -7.91761454E-01  0.00000000E+00
  0.00000000E+00 -7.07184187E-01  2.23853054E-01  0.00000000E+00  0.00000000E+00
  8.58096051E-01 -1.60517738E-01  4.28570688E-01 -1.60517738E-01  4.28570688E-01
  5.74371434E-02 -1.54645613E-01  0.00000000E+00  0.00000000E+00 -1.28902698E-01
  4.05628765E-02  0.00000000E+00  0.00000000E+00  6.61176434E-01  9.97738301E-01
 -5.59617848E-01  9.97738301E-01 -5.59617848E-01 -9.80135556E-05 -1.44456348E+00
  0.00000000E+00  0.00000000E+00  2.33071377E-01  2.98584036E+00  0.00000000E+00
  0.00000000E+00 -1.05537923E+00 -3.71216053E-01 -1.00433207E+00 -3.71216053E-01
 -1.00433207E+00  0.00000000E+00  0.00000000E+00  5.77057836E-01  0.00000000E+00
  0.00000000E+00  0.00000000E+00  5.77057836E-01  0.00000000E+00  0.00000000E+00
  0.00000000E+00  0.00000000E+00  0.00000000E+00  0.00000000E+00  0.00000000E+00
  0.00000000E+00  1.00152416E+00  0.00000000E+00  0.00000000E+00  0.00000000E+00
 -1.00152416E+00  0.00000000E+00  0.00000000E+00  0.00000000E+00  0.00000000E+00
  0.00000000E+00  0.00000000E+00  0.00000000E+00  0.00000000E+00  0.00000000E+00
  2.91673779E-01  0.00000000E+00  0.00000000E+00  0.00000000E+00  4.13675761E-01
  0.00000000E+00  2.55831265E-01  1.73006280E-01 -2.55831265E-01 -1.73006280E-01
  0.00000000E+00  0.00000000E+00  0.00000000E+00  1.00276266E+00  0.00000000E+00
  0.00000000E+00  0.00000000E+00 -1.12071295E-01  0.00000000E+00 -3.15604499E-01
 -2.44602105E-01  3.15604499E-01  2.44602105E-01  0.00000000E+00  0.00000000E+00
  0.00000000E+00  2.58484726E-01  0.00000000E+00  0.00000000E+00  0.00000000E+00
 -9.52465374E-01  0.00000000E+00  9.16853459E-01 -4.34958020E-01 -9.16853459E-01
  4.34958020E-01  0.00000000E+00  0.00000000E+00  0.00000000E+00  5.38732285E-01
  0.00000000E+00  0.00000000E+00  0.00000000E+00 -1.58778770E+00  0.00000000E+00
 -1.26687100E-01  1.63149062E+00  1.26687100E-01 -1.63149062E+00
Total SCF Density                          R   N=          91
  2.08514553E+00 -1.83533773E-01  5.07515623E-01  0.00000000E+00  0.00000000E+00
  8.24841325E-01  0.00000000E+00  0.00000000E+00  6.16297582E-33  5.08921831E-01
 -4.08093506E-02  9.59934157E-02  0.00000000E+00  1.92702904E-33  6.25356676E-01
 -2.67804892E-01  5.64266315E-01  0.00000000E+00  7.07292138E-34  2.29529422E-01
  6.54134724E-01  0.00000000E+00  0.00000000E+00  6.54241880E-01  6.16297582E-33
 -2.01603844E-33  0.00000000E+00  5.18927004E-01  0.00000000E+00  0.00000000E+00
  6.16297582E-33  2.75754972E-01  1.69947122E-33  0.00000000E+00  4.62223187E-33
  1.49415489E-01 -3.08845343E-02  8.79946236E-02  0.00000000E+00  1.39767845E-33
  4.53572590E-01  1.86035208E-01  0.00000000E+00  1.01589284E-33  3.29676076E-01
 -3.61038985E-02  7.63396108E-02 -3.08148791E-33  2.63287632E-01 -1.89555574E-01
  4.39459967E-02 -2.31111593E-33  1.42660167E-01 -1.33582303E-01  2.16282213E-01
  1.98663093E-02 -3.75298155E-02 -1.54074396E-33  1.28092045E-01 -8.99810525E-02
 -5.86579888E-02 -1.15555797E-33  6.94055868E-02 -6.61332223E-02  8.84391256E-02
  4.63433298E-02 -3.61038985E-02  7.63396108E-02  3.08148791E-33 -2.63287632E-01
 -1.89555574E-01  4.39459967E-02  2.31111593E-33 -1.42660167E-01 -1.33582303E-01
 -5.61383144E-02 -4.40961644E-02  2.16282213E-01  1.98663093E-02 -3.75298155E-02
  1.54074396E-33 -1.28092045E-01 -8.99810525E-02 -5.86579888E-02  1.15555797E-33
 -6.94055868E-02 -6.61332223E-02 -4.40961644E-02 -1.81364039E-02  8.84391256E-02
  4.63433298E-02
Mulliken Charges                           R   N=           3
 -7.91661680E-01  3.95830840E-01  3.95830840E-01
ONIOM Charges                              I   N=          16
           0           0           0           0           0           0
           0           0           0           0           0           0
           0           0           0           0
ONIOM Multiplicities                       I   N=          16
           1           0           0           0           0           0
           0           0           0           0           0           0
           0           0           0           0
Atom Layers                                I   N=           3
           1           1           1
Atom Modifiers                             I   N=           3
           0           0           0
Force Field                                I                0
Atom Modified Types                        C   N=           3
                                    
Int Atom Modified Types                    I   N=           3
           0           0           0
Link Atoms                                 I   N=           3
           0           0           0
Atom Modified MM Charges                   R   N=           3
  0.00000000E+00  0.00000000E+00  0.00000000E+00
Link Distances                             R   N=          12
  0.00000000E+00  0.00000000E+00  0.00000000E+00  0.00000000E+00  0.00000000E+00
  0.00000000E+00  0.00000000E+00  0.00000000E+00  0.00000000E+00  0.00000000E+00
  0.00000000E+00  0.00000000E+00
Cartesian Gradient                         R   N=           9
  0.00000000E+00  0.00000000E+00  0.00000000E+00  0.00000000E+00  0.00000000E+00
  0.00000000E+00  0.00000000E+00  0.00000000E+00  0.00000000E+00
Nonadiabatic coupling                      R   N=           9
  0.00000000E+00  0.00000000E+00  0.00000000E+00  0.00000000E+00  0.00000000E+00
  0.00000000E+00  0.00000000E+00  0.00000000E+00  0.00000000E+00
Dipole Moment                              R   N=           3
 -6.42098893E-17  3.56666279E-17 -1.04162427E+00
Quadrupole Moment                          R   N=           6
 -1.01709548E+00  1.21521013E+00 -1.98114652E-01  9.21703425E-17  6.04817540E-17
 -2.98529515E-17
QEq coupling tensors                       R   N=          18
  2.03285440E+00  6.06442449E-17 -1.74921902E+00  4.12267011E-17  2.92643367E-18
 -2.83635372E-01  2.85509261E-01 -1.41509187E-18 -2.63538131E-01  8.33621413E-20
  3.43503822E-01 -2.19711299E-02  2.85509261E-01 -1.00198511E-16 -2.63538131E-01
 -7.57988411E-17 -3.43503822E-01 -2.19711299E-02
Gaussian Version                           C   N=           2
ES64L-G16RevB.01        
