[Molden Format]
[Title]
 Energy water
[Atoms] AU
O    1   8       0.000000000000000014      0.000000000000000014      0.226016022000000011
H    2   1       0.000000000000000209      1.439617289999999938     -0.904064082999999963
H    3   1      -0.000000000000000496     -1.439617289999999938     -0.904064082999999963

[5D]
[GTO]
  1 0
 s    6 1.00
     5484.6716600000         0.0018310744
      825.2349460000         0.0139501722
      188.0469580000         0.0684450781
       52.9645000000         0.2327143360
       16.8975704000         0.4701928980
        5.7996353400         0.3585208530
 s    3 1.00
       15.5396162000        -0.1107775500
        3.5999335900        -0.1480262630
        1.0137617500         1.1307670200
 p    3 1.00
       15.5396162000         0.0708742682
        3.5999335900         0.3397528390
        1.0137617500         0.7271585770
 s    1 1.00
        0.2700058230         1.0000000000
 p    1 1.00
        0.2700058230         1.0000000000
 d    1 1.00
        0.8000000000         1.0000000000
 f    1 1.00
        1.4000000000         1.0000000000

  2 0
 s    3 1.00
       18.7311370000         0.0334946043
        2.8253943600         0.2347269530
        0.6401216920         0.8137573260
 s    1 1.00
        0.1612777590         1.0000000000

  3 0
 s    3 1.00
       18.7311370000         0.0334946043
        2.8253943600         0.2347269530
        0.6401216920         0.8137573260
 s    1 1.00
        0.1612777590         1.0000000000

[MO]
 Ene= -2.05570123000000002e+01
 Sym= 1a
 Spin= Alpha
 Occup= 2.00000000000000000e+00
   1 9.95797930000000053e-01
   2 2.19102239999999990e-02
   3 0.00000000000000000e+00
   4 0.00000000000000000e+00
   5 -1.62313016999999994e-03
   6 -8.02281487000000050e-03
   7 0.00000000000000000e+00
   8 0.00000000000000000e+00
   9 1.80934606000000007e-03
  10 -2.85057332000000007e-05
  11 0.00000000000000000e+00
  12 0.00000000000000000e+00
  13 2.78623899000000018e-04
  14 0.00000000000000000e+00
  15 3.02449758999999987e-05
  16 0.00000000000000000e+00
  17 0.00000000000000000e+00
  18 5.72300602999999982e-05
  19 0.00000000000000000e+00
  20 0.00000000000000000e+00
  21 0.00000000000000000e+00
  22 2.67582322999999997e-04
  23 1.89508915999999999e-03
  24 2.67582322999999997e-04
  25 1.89508915999999999e-03
 Ene= -1.33608356000000006e+00
 Sym= 1a
 Spin= Alpha
 Occup= 2.00000000000000000e+00
   1 -2.14295772999999995e-01
   2 4.67725612999999985e-01
   3 0.00000000000000000e+00
   4 0.00000000000000000e+00
   5 -8.98794552999999941e-02
   6 5.00527703000000046e-01
   7 0.00000000000000000e+00
   8 0.00000000000000000e+00
   9 -6.02763036999999988e-02
  10 6.15579264000000025e-03
  11 0.00000000000000000e+00
  12 0.00000000000000000e+00
  13 -1.71804875999999988e-02
  14 0.00000000000000000e+00
  15 3.35721614999999994e-03
  16 0.00000000000000000e+00
  17 0.00000000000000000e+00
  18 8.88641993999999928e-03
  19 0.00000000000000000e+00
  20 0.00000000000000000e+00
  21 0.00000000000000000e+00
  22 1.24618176999999997e-01
  23 -7.56619404999999984e-03
  24 1.24618176999999997e-01
  25 -7.56619404999999984e-03
 Ene= -6.97887394999999966e-01
 Sym= 1a
 Spin= Alpha
 Occup= 2.00000000000000000e+00
   1 0.00000000000000000e+00
   2 0.00000000000000000e+00
   3 0.00000000000000000e+00
   4 5.05439964000000019e-01
   5 0.00000000000000000e+00
   6 0.00000000000000000e+00
   7 0.00000000000000000e+00
   8 3.11622602000000026e-01
   9 0.00000000000000000e+00
  10 0.00000000000000000e+00
  11 0.00000000000000000e+00
  12 -5.26346507000000005e-02
  13 0.00000000000000000e+00
  14 0.00000000000000000e+00
  15 0.00000000000000000e+00
  16 0.00000000000000000e+00
  17 2.95498009999999988e-03
  18 0.00000000000000000e+00
  19 0.00000000000000000e+00
  20 0.00000000000000000e+00
  21 -8.37220317000000012e-03
  22 2.26968406000000011e-01
  23 1.15078481999999996e-01
  24 -2.26968406000000011e-01
  25 -1.15078481999999996e-01
 Ene= -5.69968765000000044e-01
 Sym= 1a
 Spin= Alpha
 Occup= 2.00000000000000000e+00
   1 -7.00282378000000039e-02
   2 1.72428445000000014e-01
   3 0.00000000000000000e+00
   4 0.00000000000000000e+00
   5 5.52471226999999954e-01
   6 2.79115851999999998e-01
   7 0.00000000000000000e+00
   8 0.00000000000000000e+00
   9 4.09069532999999985e-01
  10 -3.47574770000000019e-02
  11 0.00000000000000000e+00
  12 0.00000000000000000e+00
  13 8.42149961999999995e-03
  14 0.00000000000000000e+00
  15 1.36512955000000005e-03
  16 0.00000000000000000e+00
  17 0.00000000000000000e+00
  18 -6.81849744999999969e-03
  19 0.00000000000000000e+00
  20 0.00000000000000000e+00
  21 0.00000000000000000e+00
  22 -1.40058512999999996e-01
  23 -7.99382302999999961e-02
  24 -1.40058512999999996e-01
  25 -7.99382302999999961e-02
 Ene= -4.99110135999999982e-01
 Sym= 1a
 Spin= Alpha
 Occup= 2.00000000000000000e+00
   1 0.00000000000000000e+00
   2 0.00000000000000000e+00
   3 6.39698321000000014e-01
   4 0.00000000000000000e+00
   5 0.00000000000000000e+00
   6 0.00000000000000000e+00
   7 5.11340209999999962e-01
   8 0.00000000000000000e+00
   9 0.00000000000000000e+00
  10 0.00000000000000000e+00
  11 -3.36394200000000032e-02
  12 0.00000000000000000e+00
  13 0.00000000000000000e+00
  14 0.00000000000000000e+00
  15 0.00000000000000000e+00
  16 3.49870381999999990e-03
  17 0.00000000000000000e+00
  18 0.00000000000000000e+00
  19 0.00000000000000000e+00
  20 -8.66483965000000057e-03
  21 0.00000000000000000e+00
  22 0.00000000000000000e+00
  23 0.00000000000000000e+00
  24 0.00000000000000000e+00
  25 0.00000000000000000e+00
 Ene= 2.12210031999999993e-01
 Sym= 1a
 Spin= Alpha
 Occup= 0.00000000000000000e+00
   1 -8.57097255000000002e-02
   2 1.01317253999999995e-01
   3 0.00000000000000000e+00
   4 0.00000000000000000e+00
   5 -2.22894612999999991e-01
   6 1.17777584000000002e+00
   7 0.00000000000000000e+00
   8 0.00000000000000000e+00
   9 -4.93431897000000008e-01
  10 1.35291609999999996e-02
  11 0.00000000000000000e+00
  12 0.00000000000000000e+00
  13 -8.81647198999999972e-03
  14 0.00000000000000000e+00
  15 1.30609428000000001e-03
  16 0.00000000000000000e+00
  17 0.00000000000000000e+00
  18 5.58421492000000033e-03
  19 0.00000000000000000e+00
  20 0.00000000000000000e+00
  21 0.00000000000000000e+00
  22 -5.92437187000000032e-02
  23 -9.90748496000000034e-01
  24 -5.92437187000000032e-02
  25 -9.90748496000000034e-01
 Ene= 3.01844486999999995e-01
 Sym= 1a
 Spin= Alpha
 Occup= 0.00000000000000000e+00
   1 0.00000000000000000e+00
   2 0.00000000000000000e+00
   3 0.00000000000000000e+00
   4 -3.32565785000000003e-01
   5 0.00000000000000000e+00
   6 0.00000000000000000e+00
   7 0.00000000000000000e+00
   8 -8.27808807000000035e-01
   9 0.00000000000000000e+00
  10 0.00000000000000000e+00
  11 0.00000000000000000e+00
  12 2.21392728999999996e-02
  13 0.00000000000000000e+00
  14 0.00000000000000000e+00
  15 0.00000000000000000e+00
  16 0.00000000000000000e+00
  17 7.98375929000000014e-04
  18 0.00000000000000000e+00
  19 0.00000000000000000e+00
  20 0.00000000000000000e+00
  21 5.37562895999999998e-03
  22 5.37594460999999968e-02
  23 1.37320423000000003e+00
  24 -5.37594460999999968e-02
  25 -1.37320423000000003e+00
 Ene= 1.01523166999999992e+00
 Sym= 1a
 Spin= Alpha
 Occup= 0.00000000000000000e+00
   1 0.00000000000000000e+00
   2 0.00000000000000000e+00
   3 0.00000000000000000e+00
   4 -1.03728846000000000e-01
   5 0.00000000000000000e+00
   6 0.00000000000000000e+00
   7 0.00000000000000000e+00
   8 -6.13604595999999947e-01
   9 0.00000000000000000e+00
  10 0.00000000000000000e+00
  11 0.00000000000000000e+00
  12 -1.98667239999999995e-01
  13 0.00000000000000000e+00
  14 0.00000000000000000e+00
  15 0.00000000000000000e+00
  16 0.00000000000000000e+00
  17 8.66880327999999985e-03
  18 0.00000000000000000e+00
  19 0.00000000000000000e+00
  20 0.00000000000000000e+00
  21 5.58176177999999967e-03
  22 8.37433545000000001e-01
  23 -4.97883897999999991e-01
  24 -8.37433545000000001e-01
  25 4.97883897999999991e-01
 Ene= 1.15570675999999994e+00
 Sym= 1a
 Spin= Alpha
 Occup= 0.00000000000000000e+00
   1 6.36872990000000028e-02
   2 -3.11279739000000000e-01
   3 0.00000000000000000e+00
   4 0.00000000000000000e+00
   5 3.67951065999999993e-01
   6 1.28582574000000005e-01
   7 0.00000000000000000e+00
   8 0.00000000000000000e+00
   9 1.63301742000000000e-01
  10 -1.40667681999999995e-02
  11 0.00000000000000000e+00
  12 0.00000000000000000e+00
  13 -2.19364332999999995e-01
  14 0.00000000000000000e+00
  15 3.17891270000000012e-03
  16 0.00000000000000000e+00
  17 0.00000000000000000e+00
  18 5.30034681000000028e-03
  19 0.00000000000000000e+00
  20 0.00000000000000000e+00
  21 0.00000000000000000e+00
  22 8.70695627000000028e-01
  23 -4.92256862000000017e-01
  24 8.70695627000000028e-01
  25 -4.92256862000000017e-01
 Ene= 1.16657799999999989e+00
 Sym= 1a
 Spin= Alpha
 Occup= 0.00000000000000000e+00
   1 0.00000000000000000e+00
   2 0.00000000000000000e+00
   3 -9.62681436999999973e-01
   4 0.00000000000000000e+00
   5 0.00000000000000000e+00
   6 0.00000000000000000e+00
   7 1.03607921999999997e+00
   8 0.00000000000000000e+00
   9 0.00000000000000000e+00
  10 0.00000000000000000e+00
  11 -1.52199785000000001e-02
  12 0.00000000000000000e+00
  13 0.00000000000000000e+00
  14 0.00000000000000000e+00
  15 0.00000000000000000e+00
  16 4.71064504999999976e-04
  17 0.00000000000000000e+00
  18 0.00000000000000000e+00
  19 0.00000000000000000e+00
  20 -4.13504464000000020e-04
  21 0.00000000000000000e+00
  22 0.00000000000000000e+00
  23 0.00000000000000000e+00
  24 0.00000000000000000e+00
  25 0.00000000000000000e+00
 Ene= 1.20003382999999997e+00
 Sym= 1a
 Spin= Alpha
 Occup= 0.00000000000000000e+00
   1 4.65541696000000005e-02
   2 -3.73331049999999998e-01
   3 0.00000000000000000e+00
   4 0.00000000000000000e+00
   5 -9.01550300000000027e-01
   6 1.06703201999999997e-01
   7 0.00000000000000000e+00
   8 0.00000000000000000e+00
   9 1.14298637999999997e+00
  10 -2.22779591999999992e-02
  11 0.00000000000000000e+00
  12 0.00000000000000000e+00
  13 -4.81709816000000027e-02
  14 0.00000000000000000e+00
  15 6.36849469999999952e-04
  16 0.00000000000000000e+00
  17 0.00000000000000000e+00
  18 -2.84624069000000027e-04
  19 0.00000000000000000e+00
  20 0.00000000000000000e+00
  21 0.00000000000000000e+00
  22 1.73495746000000006e-01
  23 9.79622990000000027e-02
  24 1.73495746000000006e-01
  25 9.79622990000000027e-02
 Ene= 1.37847085999999996e+00
 Sym= 1a
 Spin= Alpha
 Occup= 0.00000000000000000e+00
   1 0.00000000000000000e+00
   2 0.00000000000000000e+00
   3 0.00000000000000000e+00
   4 -1.03474148000000010e+00
   5 0.00000000000000000e+00
   6 0.00000000000000000e+00
   7 0.00000000000000000e+00
   8 1.53253162000000009e+00
   9 0.00000000000000000e+00
  10 0.00000000000000000e+00
  11 0.00000000000000000e+00
  12 -1.03737327000000008e-02
  13 0.00000000000000000e+00
  14 0.00000000000000000e+00
  15 0.00000000000000000e+00
  16 0.00000000000000000e+00
  17 1.86588708000000000e-03
  18 0.00000000000000000e+00
  19 0.00000000000000000e+00
  20 0.00000000000000000e+00
  21 -3.27667832999999986e-03
  22 8.66050356000000049e-02
  23 -8.90608473000000012e-01
  24 -8.66050356000000049e-02
  25 8.90608473000000012e-01
 Ene= 1.65933621999999992e+00
 Sym= 1a
 Spin= Alpha
 Occup= 0.00000000000000000e+00
   1 6.49880560000000024e-02
   2 -1.59663508999999992e+00
   3 0.00000000000000000e+00
   4 0.00000000000000000e+00
   5 2.48446530999999998e-01
   6 2.48191466000000016e+00
   7 0.00000000000000000e+00
   8 0.00000000000000000e+00
   9 -7.22512860000000035e-01
  10 4.14683945999999998e-02
  11 0.00000000000000000e+00
  12 0.00000000000000000e+00
  13 2.55694790999999977e-01
  14 0.00000000000000000e+00
  15 -3.20010076999999995e-03
  16 0.00000000000000000e+00
  17 0.00000000000000000e+00
  18 -5.14838783000000008e-03
  19 0.00000000000000000e+00
  20 0.00000000000000000e+00
  21 0.00000000000000000e+00
  22 -2.09952555000000013e-01
  23 -6.28415967999999991e-01
  24 -2.09952555000000013e-01
  25 -6.28415967999999991e-01
 Ene= 2.01939913000000004e+00
 Sym= 1a
 Spin= Alpha
 Occup= 0.00000000000000000e+00
   1 -7.46371484000000031e-04
   2 1.12108991000000005e-01
   3 0.00000000000000000e+00
   4 0.00000000000000000e+00
   5 -8.09388211000000059e-03
   6 -2.17759082999999992e-01
   7 0.00000000000000000e+00
   8 0.00000000000000000e+00
   9 1.32357168999999997e-01
  10 9.86545946999999979e-01
  11 0.00000000000000000e+00
  12 0.00000000000000000e+00
  13 1.26297062999999987e-01
  14 0.00000000000000000e+00
  15 -2.98121351000000014e-02
  16 0.00000000000000000e+00
  17 0.00000000000000000e+00
  18 -2.11938905999999993e-03
  19 0.00000000000000000e+00
  20 0.00000000000000000e+00
  21 0.00000000000000000e+00
  22 7.60576310999999949e-02
  23 4.03922528000000003e-02
  24 7.60576310999999949e-02
  25 4.03922528000000003e-02
 Ene= 2.03341395999999985e+00
 Sym= 1a
 Spin= Alpha
 Occup= 0.00000000000000000e+00
   1 0.00000000000000000e+00
   2 0.00000000000000000e+00
   3 0.00000000000000000e+00
   4 0.00000000000000000e+00
   5 0.00000000000000000e+00
   6 0.00000000000000000e+00
   7 0.00000000000000000e+00
   8 0.00000000000000000e+00
   9 0.00000000000000000e+00
  10 0.00000000000000000e+00
  11 0.00000000000000000e+00
  12 0.00000000000000000e+00
  13 0.00000000000000000e+00
  14 9.99521756000000039e-01
  15 0.00000000000000000e+00
  16 0.00000000000000000e+00
  17 0.00000000000000000e+00
  18 0.00000000000000000e+00
  19 -3.09234578999999996e-02
  20 0.00000000000000000e+00
  21 0.00000000000000000e+00
  22 0.00000000000000000e+00
  23 0.00000000000000000e+00
  24 0.00000000000000000e+00
  25 0.00000000000000000e+00
 Ene= 2.06561839999999997e+00
 Sym= 1a
 Spin= Alpha
 Occup= 0.00000000000000000e+00
   1 0.00000000000000000e+00
   2 0.00000000000000000e+00
   3 6.95620288999999978e-03
   4 0.00000000000000000e+00
   5 0.00000000000000000e+00
   6 0.00000000000000000e+00
   7 3.30782868999999966e-02
   8 0.00000000000000000e+00
   9 0.00000000000000000e+00
  10 0.00000000000000000e+00
  11 9.98985046000000043e-01
  12 0.00000000000000000e+00
  13 0.00000000000000000e+00
  14 0.00000000000000000e+00
  15 0.00000000000000000e+00
  16 -2.42954280999999987e-02
  17 0.00000000000000000e+00
  18 0.00000000000000000e+00
  19 0.00000000000000000e+00
  20 8.07767248999999993e-03
  21 0.00000000000000000e+00
  22 0.00000000000000000e+00
  23 0.00000000000000000e+00
  24 0.00000000000000000e+00
  25 0.00000000000000000e+00
 Ene= 2.61070160000000007e+00
 Sym= 1a
 Spin= Alpha
 Occup= 0.00000000000000000e+00
   1 -1.82997316999999986e-02
   2 -5.64164219000000022e-01
   3 0.00000000000000000e+00
   4 0.00000000000000000e+00
   5 5.23763450999999991e-02
   6 1.32727211999999994e+00
   7 0.00000000000000000e+00
   8 0.00000000000000000e+00
   9 -7.10576714999999970e-01
  10 1.59985221000000011e-01
  11 0.00000000000000000e+00
  12 0.00000000000000000e+00
  13 -1.05984337000000006e+00
  14 0.00000000000000000e+00
  15 -2.78997149000000007e-02
  16 0.00000000000000000e+00
  17 0.00000000000000000e+00
  18 -3.64495780000000033e-02
  19 0.00000000000000000e+00
  20 0.00000000000000000e+00
  21 0.00000000000000000e+00
  22 -8.13300507999999978e-01
  23 -1.18231958999999998e-01
  24 -8.13300507999999978e-01
  25 -1.18231958999999998e-01
 Ene= 2.92223692000000002e+00
 Sym= 1a
 Spin= Alpha
 Occup= 0.00000000000000000e+00
   1 0.00000000000000000e+00
   2 0.00000000000000000e+00
   3 0.00000000000000000e+00
   4 3.01916586999999986e-02
   5 0.00000000000000000e+00
   6 0.00000000000000000e+00
   7 0.00000000000000000e+00
   8 -8.24622786000000052e-01
   9 0.00000000000000000e+00
  10 0.00000000000000000e+00
  11 0.00000000000000000e+00
  12 1.26222574000000010e+00
  13 0.00000000000000000e+00
  14 0.00000000000000000e+00
  15 0.00000000000000000e+00
  16 0.00000000000000000e+00
  17 1.75420262999999993e-02
  18 0.00000000000000000e+00
  19 0.00000000000000000e+00
  20 0.00000000000000000e+00
  21 -4.23849801999999984e-02
  22 9.14704630000000019e-01
  23 -4.64591284000000007e-02
  24 -9.14704630000000019e-01
  25 4.64591284000000007e-02
 Ene= 5.36652821000000024e+00
 Sym= 1a
 Spin= Alpha
 Occup= 0.00000000000000000e+00
   1 0.00000000000000000e+00
   2 0.00000000000000000e+00
   3 0.00000000000000000e+00
   4 4.61268349000000001e-03
   5 0.00000000000000000e+00
   6 0.00000000000000000e+00
   7 0.00000000000000000e+00
   8 3.94437508999999978e-02
   9 0.00000000000000000e+00
  10 0.00000000000000000e+00
  11 0.00000000000000000e+00
  12 -1.34359387000000004e-02
  13 0.00000000000000000e+00
  14 0.00000000000000000e+00
  15 0.00000000000000000e+00
  16 0.00000000000000000e+00
  17 7.75771899999999959e-01
  18 0.00000000000000000e+00
  19 0.00000000000000000e+00
  20 0.00000000000000000e+00
  21 6.32085059999999976e-01
  22 -4.74488898999999992e-02
  23 9.13869584999999970e-03
  24 4.74488898999999992e-02
  25 -9.13869584999999970e-03
 Ene= 5.40847412000000016e+00
 Sym= 1a
 Spin= Alpha
 Occup= 0.00000000000000000e+00
   1 0.00000000000000000e+00
   2 0.00000000000000000e+00
   3 0.00000000000000000e+00
   4 0.00000000000000000e+00
   5 0.00000000000000000e+00
   6 0.00000000000000000e+00
   7 0.00000000000000000e+00
   8 0.00000000000000000e+00
   9 0.00000000000000000e+00
  10 0.00000000000000000e+00
  11 0.00000000000000000e+00
  12 0.00000000000000000e+00
  13 0.00000000000000000e+00
  14 3.09234578999999996e-02
  15 0.00000000000000000e+00
  16 0.00000000000000000e+00
  17 0.00000000000000000e+00
  18 0.00000000000000000e+00
  19 9.99521756000000039e-01
  20 0.00000000000000000e+00
  21 0.00000000000000000e+00
  22 0.00000000000000000e+00
  23 0.00000000000000000e+00
  24 0.00000000000000000e+00
  25 0.00000000000000000e+00
 Ene= 5.42216696000000020e+00
 Sym= 1a
 Spin= Alpha
 Occup= 0.00000000000000000e+00
   1 0.00000000000000000e+00
   2 0.00000000000000000e+00
   3 4.57142577000000001e-03
   4 0.00000000000000000e+00
   5 0.00000000000000000e+00
   6 0.00000000000000000e+00
   7 4.12157875000000035e-03
   8 0.00000000000000000e+00
   9 0.00000000000000000e+00
  10 0.00000000000000000e+00
  11 -2.44501034000000001e-03
  12 0.00000000000000000e+00
  13 0.00000000000000000e+00
  14 0.00000000000000000e+00
  15 0.00000000000000000e+00
  16 2.33384072999999997e-01
  17 0.00000000000000000e+00
  18 0.00000000000000000e+00
  19 0.00000000000000000e+00
  20 9.72352360000000027e-01
  21 0.00000000000000000e+00
  22 0.00000000000000000e+00
  23 0.00000000000000000e+00
  24 0.00000000000000000e+00
  25 0.00000000000000000e+00
 Ene= 5.45892032999999977e+00
 Sym= 1a
 Spin= Alpha
 Occup= 0.00000000000000000e+00
   1 -1.15178928999999999e-03
   2 -1.68084699000000011e-02
   3 0.00000000000000000e+00
   4 0.00000000000000000e+00
   5 -8.65356046999999988e-04
   6 4.64575139999999984e-02
   7 0.00000000000000000e+00
   8 0.00000000000000000e+00
   9 -3.06786637000000008e-02
  10 3.06669421000000005e-02
  11 0.00000000000000000e+00
  12 0.00000000000000000e+00
  13 -2.22081881000000016e-02
  14 0.00000000000000000e+00
  15 9.35920596999999965e-01
  16 0.00000000000000000e+00
  17 0.00000000000000000e+00
  18 -3.51705686000000017e-01
  19 0.00000000000000000e+00
  20 0.00000000000000000e+00
  21 0.00000000000000000e+00
  22 -3.94540256999999991e-02
  23 -2.99012449000000025e-04
  24 -3.94540256999999991e-02
  25 -2.99012449000000025e-04
 Ene= 5.46815552999999976e+00
 Sym= 1a
 Spin= Alpha
 Occup= 0.00000000000000000e+00
   1 0.00000000000000000e+00
   2 0.00000000000000000e+00
   3 -2.75958633000000005e-03
   4 0.00000000000000000e+00
   5 0.00000000000000000e+00
   6 0.00000000000000000e+00
   7 -2.50530939999999997e-03
   8 0.00000000000000000e+00
   9 0.00000000000000000e+00
  10 0.00000000000000000e+00
  11 2.56834797000000011e-02
  12 0.00000000000000000e+00
  13 0.00000000000000000e+00
  14 0.00000000000000000e+00
  15 0.00000000000000000e+00
  16 9.72074659999999979e-01
  17 0.00000000000000000e+00
  18 0.00000000000000000e+00
  19 0.00000000000000000e+00
  20 -2.33217470000000010e-01
  21 0.00000000000000000e+00
  22 0.00000000000000000e+00
  23 0.00000000000000000e+00
  24 0.00000000000000000e+00
  25 0.00000000000000000e+00
 Ene= 5.65306270000000044e+00
 Sym= 1a
 Spin= Alpha
 Occup= 0.00000000000000000e+00
   1 0.00000000000000000e+00
   2 0.00000000000000000e+00
   3 0.00000000000000000e+00
   4 -3.02057706000000018e-03
   5 0.00000000000000000e+00
   6 0.00000000000000000e+00
   7 0.00000000000000000e+00
   8 -2.68741347999999991e-01
   9 0.00000000000000000e+00
  10 0.00000000000000000e+00
  11 0.00000000000000000e+00
  12 2.55351802000000017e-01
  13 0.00000000000000000e+00
  14 0.00000000000000000e+00
  15 0.00000000000000000e+00
  16 0.00000000000000000e+00
  17 -6.59550411999999975e-01
  18 0.00000000000000000e+00
  19 0.00000000000000000e+00
  20 0.00000000000000000e+00
  21 7.92114493000000031e-01
  22 3.65758793999999998e-01
  23 -7.50874371999999957e-02
  24 -3.65758793999999998e-01
  25 7.50874371999999957e-02
 Ene= 5.84725193999999959e+00
 Sym= 1a
 Spin= Alpha
 Occup= 0.00000000000000000e+00
   1 -1.47824641999999996e-02
   2 -1.97454774999999999e-01
   3 0.00000000000000000e+00
   4 0.00000000000000000e+00
   5 1.23445466000000007e-02
   6 5.54869995000000005e-01
   7 0.00000000000000000e+00
   8 0.00000000000000000e+00
   9 -3.53641908999999977e-01
  10 4.36051754000000014e-02
  11 0.00000000000000000e+00
  12 0.00000000000000000e+00
  13 -2.28998436000000000e-01
  14 0.00000000000000000e+00
  15 3.81676334000000006e-01
  16 0.00000000000000000e+00
  17 0.00000000000000000e+00
  18 9.93352974000000000e-01
  19 0.00000000000000000e+00
  20 0.00000000000000000e+00
  21 0.00000000000000000e+00
  22 -5.01650663000000052e-01
  23 1.32914793000000007e-02
  24 -5.01650663000000052e-01
  25 1.32914793000000007e-02
